V -t * -v 1.0a5 -a 0
A -t * -n 1 -p 0 -o 0xffffffff -c 31 -a 1
A -t * -h 1 -m 2147483647 -s 0
n -t 0.000000 -s 0 -x 556.734145 -y 1023.323396 -U 4.702793 -V 6.200552 -T 93.554998
n -t 0.000000 -s 1 -x 1675.254407 -y 12.170825 -U -6.438021 -V 9.809000 -T 176.576461
n -t 0.000000 -s 2 -x 1797.656018 -y 1218.096291 -U -18.631212 -V -7.044390 -T 67.071601
n -t 0.000000 -s 3 -x 1580.042913 -y 1790.980063 -U -8.178706 -V -16.077715 -T 69.061065
n -t 0.000000 -s 4 -x 1721.454093 -y 491.074164 -U -2.334909 -V 5.085720 -T 105.585151
n -t 0.000000 -s 5 -x 293.461427 -y 194.327818 -U -3.643085 -V 16.939357 -T 65.701890
n -t 0.000000 -s 6 -x 762.813371 -y 600.335854 -U 1.492884 -V 0.316937 -T 720.189955
n -t 0.000000 -s 7 -x 7.606244 -y 1821.467184 -U 5.314551 -V -5.053548 -T 264.399918
n -t 0.000000 -s 8 -x 567.570542 -y 1150.824915 -U 18.884286 -V -0.696488 -T 71.451704
n -t 0.000000 -s 9 -x 319.212252 -y 988.884329 -U -1.818951 -V -12.786767 -T 77.229287
n -t 0.000000 -s 10 -x 1656.638326 -y 1131.379517 -U -10.141063 -V 15.084850 -T 55.110965
n -t 0.000000 -s 11 -x 1716.857002 -y 1227.684741 -U -1.393838 -V 0.523594 -T 11.183783
n -t 0.000000 -s 12 -x 1195.784893 -y 1559.990623 -U -15.415042 -V 15.742624 -T 27.503254
n -t 0.000000 -s 13 -x 1929.226005 -y 517.079306 -U -16.059068 -V 7.919346 -T 86.272261
n -t 0.000000 -s 14 -x 1123.614275 -y 587.193557 -U -3.793583 -V 20.867167 -T 44.402861
n -t 0.000000 -s 15 -x 1033.943429 -y 1487.776557 -U 0.393124 -V -3.533826 -T 88.643059
n -t 0.000000 -s 16 -x 752.469858 -y 756.748509 -U -8.053766 -V 9.044340 -T 10.475086
n -t 0.000000 -s 17 -x 734.094656 -y 1924.412749 -U 21.929960 -V -7.691485 -T 40.424879
n -t 0.000000 -s 18 -x 1126.132816 -y 916.361811 -U 14.402786 -V 14.092775 -T 11.485051
n -t 0.000000 -s 19 -x 14.919636 -y 737.759340 -U 2.360332 -V 0.938489 -T 636.312390
n -t 0.000000 -s 20 -x 1269.091872 -y 1631.618370 -U -0.014570 -V 0.002453 -T 44511.769341
n -t 0.000000 -s 21 -x 1865.891364 -y 50.702816 -U -24.235610 -V 5.938532 -T 70.954014
n -t 0.000000 -s 22 -x 233.514575 -y 666.586818 -U 13.394116 -V 5.190306 -T 81.044843
n -t 0.000000 -s 23 -x 61.351619 -y 1120.878386 -U 13.366580 -V 5.784371 -T 40.677233
n -t 0.000000 -s 24 -x 832.348224 -y 1273.785744 -U -8.850272 -V -16.856313 -T 35.110648
n -t 0.000000 -s 25 -x 1006.789477 -y 1110.850734 -U -10.130088 -V -0.579964 -T 92.460774
n -t 0.000000 -s 26 -x 815.477022 -y 1719.214668 -U 0.764409 -V -22.268154 -T 49.107599
n -t 0.000000 -s 27 -x 504.151025 -y 1257.935527 -U -7.985124 -V -22.579433 -T 47.263626
n -t 0.000000 -s 28 -x 1944.746921 -y 1377.385260 -U -6.036435 -V -12.767120 -T 37.164204
n -t 0.000000 -s 29 -x 90.729550 -y 876.262664 -U 13.726972 -V 4.535057 -T 91.337457
n -t 0.000000 -s 30 -x 1915.599887 -y 1502.690646 -U -3.771408 -V -23.309574 -T 49.177111
n -t 0.000000 -s 31 -x 695.786972 -y 86.535228 -U -3.401835 -V 0.454373 -T 92.172920
n -t 0.000000 -s 32 -x 590.370344 -y 347.489644 -U -3.606010 -V 10.005516 -T 95.089976
n -t 0.000000 -s 33 -x 54.730974 -y 1847.594385 -U 7.207776 -V -7.609608 -T 66.364653
n -t 0.000000 -s 34 -x 770.303791 -y 491.962183 -U -21.333551 -V 8.660555 -T 17.363802
n -t 0.000000 -s 35 -x 1766.753093 -y 1832.119303 -U -16.360302 -V -4.964831 -T 80.905461
n -t 0.000000 -s 36 -x 5.456153 -y 1684.850803 -U 23.920236 -V -1.805997 -T 54.075619
n -t 0.000000 -s 37 -x 1729.938544 -y 1089.384148 -U -6.529877 -V 10.806098 -T 68.769122
n -t 0.000000 -s 38 -x 157.713790 -y 681.511483 -U 0.012945 -V -19.662773 -T 33.723179
n -t 0.000000 -s 39 -x 1204.510063 -y 204.065887 -U 4.547091 -V 10.620186 -T 113.803500
+ -t 0.001675134 -s 32 -d -1 -p GPSR -e 11 -c 2 -a 0 -i 0 -k RTR 
- -t 0.001675134 -s 32 -d -1 -p GPSR -e 11 -c 2 -a 0 -i 0 -k RTR
h -t 0.001675134 -s 32 -d -1 -p GPSR -e 11 -c 2 -a 0 -i 0 -k RTR
+ -t 0.002130134 -s 32 -d -1 -p GPSR -e 69 -c 2 -a 0 -i 0 -k MAC 
- -t 0.002130134 -s 32 -d -1 -p GPSR -e 69 -c 2 -a 0 -i 0 -k MAC
h -t 0.002130134 -s 32 -d -1 -p GPSR -e 69 -c 2 -a 0 -i 0 -k MAC
r -t 0.002682903 -s 34 -d -1 -p GPSR -e 11 -c 2 -a 0 -i 0 -k MAC
r -t 0.002707903 -s 34 -d -1 -p GPSR -e 11 -c 2 -a 0 -i 0 -k RTR
+ -t 0.005404169 -s 14 -d -1 -p GPSR -e 11 -c 2 -a 0 -i 1 -k RTR 
- -t 0.005404169 -s 14 -d -1 -p GPSR -e 11 -c 2 -a 0 -i 1 -k RTR
h -t 0.005404169 -s 14 -d -1 -p GPSR -e 11 -c 2 -a 0 -i 1 -k RTR
+ -t 0.005799169 -s 14 -d -1 -p GPSR -e 69 -c 2 -a 0 -i 1 -k MAC 
- -t 0.005799169 -s 14 -d -1 -p GPSR -e 69 -c 2 -a 0 -i 1 -k MAC
h -t 0.005799169 -s 14 -d -1 -p GPSR -e 69 -c 2 -a 0 -i 1 -k MAC
+ -t 0.007102330 -s 0 -d -1 -p GPSR -e 11 -c 2 -a 0 -i 2 -k RTR 
- -t 0.007102330 -s 0 -d -1 -p GPSR -e 11 -c 2 -a 0 -i 2 -k RTR
h -t 0.007102330 -s 0 -d -1 -p GPSR -e 11 -c 2 -a 0 -i 2 -k RTR
+ -t 0.007357330 -s 0 -d -1 -p GPSR -e 69 -c 2 -a 0 -i 2 -k MAC 
- -t 0.007357330 -s 0 -d -1 -p GPSR -e 69 -c 2 -a 0 -i 2 -k MAC
h -t 0.007357330 -s 0 -d -1 -p GPSR -e 69 -c 2 -a 0 -i 2 -k MAC
r -t 0.007909757 -s 8 -d -1 -p GPSR -e 11 -c 2 -a 0 -i 2 -k MAC
r -t 0.007910131 -s 9 -d -1 -p GPSR -e 11 -c 2 -a 0 -i 2 -k MAC
r -t 0.007910131 -s 27 -d -1 -p GPSR -e 11 -c 2 -a 0 -i 2 -k MAC
r -t 0.007934757 -s 8 -d -1 -p GPSR -e 11 -c 2 -a 0 -i 2 -k RTR
r -t 0.007935131 -s 9 -d -1 -p GPSR -e 11 -c 2 -a 0 -i 2 -k RTR
r -t 0.007935131 -s 27 -d -1 -p GPSR -e 11 -c 2 -a 0 -i 2 -k RTR
+ -t 0.013778736 -s 18 -d -1 -p GPSR -e 11 -c 2 -a 0 -i 8 -k RTR 
- -t 0.013778736 -s 18 -d -1 -p GPSR -e 11 -c 2 -a 0 -i 8 -k RTR
h -t 0.013778736 -s 18 -d -1 -p GPSR -e 11 -c 2 -a 0 -i 8 -k RTR
+ -t 0.014393736 -s 18 -d -1 -p GPSR -e 69 -c 2 -a 0 -i 8 -k MAC 
- -t 0.014393736 -s 18 -d -1 -p GPSR -e 69 -c 2 -a 0 -i 8 -k MAC
h -t 0.014393736 -s 18 -d -1 -p GPSR -e 69 -c 2 -a 0 -i 8 -k MAC
r -t 0.014946497 -s 25 -d -1 -p GPSR -e 11 -c 2 -a 0 -i 8 -k MAC
r -t 0.014971497 -s 25 -d -1 -p GPSR -e 11 -c 2 -a 0 -i 8 -k RTR
+ -t 0.015970714 -s 34 -d -1 -p GPSR -e 11 -c 2 -a 0 -i 9 -k RTR 
- -t 0.015970714 -s 34 -d -1 -p GPSR -e 11 -c 2 -a 0 -i 9 -k RTR
h -t 0.015970714 -s 34 -d -1 -p GPSR -e 11 -c 2 -a 0 -i 9 -k RTR
+ -t 0.016265714 -s 34 -d -1 -p GPSR -e 69 -c 2 -a 0 -i 9 -k MAC 
- -t 0.016265714 -s 34 -d -1 -p GPSR -e 69 -c 2 -a 0 -i 9 -k MAC
h -t 0.016265714 -s 34 -d -1 -p GPSR -e 69 -c 2 -a 0 -i 9 -k MAC
+ -t 0.016396178 -s 31 -d -1 -p GPSR -e 11 -c 2 -a 0 -i 10 -k RTR 
- -t 0.016396178 -s 31 -d -1 -p GPSR -e 11 -c 2 -a 0 -i 10 -k RTR
h -t 0.016396178 -s 31 -d -1 -p GPSR -e 11 -c 2 -a 0 -i 10 -k RTR
r -t 0.016818076 -s 6 -d -1 -p GPSR -e 11 -c 2 -a 0 -i 9 -k MAC
r -t 0.016818483 -s 32 -d -1 -p GPSR -e 11 -c 2 -a 0 -i 9 -k MAC
r -t 0.016843076 -s 6 -d -1 -p GPSR -e 11 -c 2 -a 0 -i 9 -k RTR
r -t 0.016843483 -s 32 -d -1 -p GPSR -e 11 -c 2 -a 0 -i 9 -k RTR
+ -t 0.017373088 -s 31 -d -1 -p GPSR -e 69 -c 2 -a 0 -i 10 -k MAC 
- -t 0.017373088 -s 31 -d -1 -p GPSR -e 69 -c 2 -a 0 -i 10 -k MAC
h -t 0.017373088 -s 31 -d -1 -p GPSR -e 69 -c 2 -a 0 -i 10 -k MAC
+ -t 0.025066702 -s 22 -d -1 -p GPSR -e 11 -c 2 -a 0 -i 11 -k RTR 
- -t 0.025066702 -s 22 -d -1 -p GPSR -e 11 -c 2 -a 0 -i 11 -k RTR
h -t 0.025066702 -s 22 -d -1 -p GPSR -e 11 -c 2 -a 0 -i 11 -k RTR
+ -t 0.025521702 -s 22 -d -1 -p GPSR -e 69 -c 2 -a 0 -i 11 -k MAC 
- -t 0.025521702 -s 22 -d -1 -p GPSR -e 69 -c 2 -a 0 -i 11 -k MAC
h -t 0.025521702 -s 22 -d -1 -p GPSR -e 69 -c 2 -a 0 -i 11 -k MAC
r -t 0.026073961 -s 38 -d -1 -p GPSR -e 11 -c 2 -a 0 -i 11 -k MAC
r -t 0.026074470 -s 19 -d -1 -p GPSR -e 11 -c 2 -a 0 -i 11 -k MAC
r -t 0.026098961 -s 38 -d -1 -p GPSR -e 11 -c 2 -a 0 -i 11 -k RTR
r -t 0.026099470 -s 19 -d -1 -p GPSR -e 11 -c 2 -a 0 -i 11 -k RTR
+ -t 0.061551748 -s 15 -d -1 -p GPSR -e 11 -c 2 -a 0 -i 12 -k RTR 
- -t 0.061551748 -s 15 -d -1 -p GPSR -e 11 -c 2 -a 0 -i 12 -k RTR
h -t 0.061551748 -s 15 -d -1 -p GPSR -e 11 -c 2 -a 0 -i 12 -k RTR
+ -t 0.061986748 -s 15 -d -1 -p GPSR -e 69 -c 2 -a 0 -i 12 -k MAC 
- -t 0.061986748 -s 15 -d -1 -p GPSR -e 69 -c 2 -a 0 -i 12 -k MAC
h -t 0.061986748 -s 15 -d -1 -p GPSR -e 69 -c 2 -a 0 -i 12 -k MAC
r -t 0.062539337 -s 12 -d -1 -p GPSR -e 11 -c 2 -a 0 -i 12 -k MAC
r -t 0.062564337 -s 12 -d -1 -p GPSR -e 11 -c 2 -a 0 -i 12 -k RTR
+ -t 0.074994216 -s 28 -d -1 -p GPSR -e 11 -c 2 -a 0 -i 13 -k RTR 
- -t 0.074994216 -s 28 -d -1 -p GPSR -e 11 -c 2 -a 0 -i 13 -k RTR
h -t 0.074994216 -s 28 -d -1 -p GPSR -e 11 -c 2 -a 0 -i 13 -k RTR
+ -t 0.075209216 -s 28 -d -1 -p GPSR -e 69 -c 2 -a 0 -i 13 -k MAC 
- -t 0.075209216 -s 28 -d -1 -p GPSR -e 69 -c 2 -a 0 -i 13 -k MAC
h -t 0.075209216 -s 28 -d -1 -p GPSR -e 69 -c 2 -a 0 -i 13 -k MAC
r -t 0.075761642 -s 30 -d -1 -p GPSR -e 11 -c 2 -a 0 -i 13 -k MAC
r -t 0.075761939 -s 2 -d -1 -p GPSR -e 11 -c 2 -a 0 -i 13 -k MAC
r -t 0.075786642 -s 30 -d -1 -p GPSR -e 11 -c 2 -a 0 -i 13 -k RTR
r -t 0.075786939 -s 2 -d -1 -p GPSR -e 11 -c 2 -a 0 -i 13 -k RTR
+ -t 0.093682621 -s 12 -d -1 -p GPSR -e 11 -c 2 -a 0 -i 14 -k RTR 
- -t 0.093682621 -s 12 -d -1 -p GPSR -e 11 -c 2 -a 0 -i 14 -k RTR
h -t 0.093682621 -s 12 -d -1 -p GPSR -e 11 -c 2 -a 0 -i 14 -k RTR
+ -t 0.094117621 -s 12 -d -1 -p GPSR -e 69 -c 2 -a 0 -i 14 -k MAC 
- -t 0.094117621 -s 12 -d -1 -p GPSR -e 69 -c 2 -a 0 -i 14 -k MAC
h -t 0.094117621 -s 12 -d -1 -p GPSR -e 69 -c 2 -a 0 -i 14 -k MAC
r -t 0.094669963 -s 20 -d -1 -p GPSR -e 11 -c 2 -a 0 -i 14 -k MAC
r -t 0.094670210 -s 15 -d -1 -p GPSR -e 11 -c 2 -a 0 -i 14 -k MAC
r -t 0.094694963 -s 20 -d -1 -p GPSR -e 11 -c 2 -a 0 -i 14 -k RTR
r -t 0.094695210 -s 15 -d -1 -p GPSR -e 11 -c 2 -a 0 -i 14 -k RTR
+ -t 0.103367014 -s 20 -d -1 -p GPSR -e 11 -c 2 -a 0 -i 15 -k RTR 
- -t 0.103367014 -s 20 -d -1 -p GPSR -e 11 -c 2 -a 0 -i 15 -k RTR
h -t 0.103367014 -s 20 -d -1 -p GPSR -e 11 -c 2 -a 0 -i 15 -k RTR
+ -t 0.103782014 -s 20 -d -1 -p GPSR -e 69 -c 2 -a 0 -i 15 -k MAC 
- -t 0.103782014 -s 20 -d -1 -p GPSR -e 69 -c 2 -a 0 -i 15 -k MAC
h -t 0.103782014 -s 20 -d -1 -p GPSR -e 69 -c 2 -a 0 -i 15 -k MAC
+ -t 0.103807564 -s 36 -d -1 -p GPSR -e 11 -c 2 -a 0 -i 16 -k RTR 
- -t 0.103807564 -s 36 -d -1 -p GPSR -e 11 -c 2 -a 0 -i 16 -k RTR
h -t 0.103807564 -s 36 -d -1 -p GPSR -e 11 -c 2 -a 0 -i 16 -k RTR
r -t 0.104334356 -s 12 -d -1 -p GPSR -e 11 -c 2 -a 0 -i 15 -k MAC
r -t 0.104359356 -s 12 -d -1 -p GPSR -e 11 -c 2 -a 0 -i 15 -k RTR
+ -t 0.104362564 -s 36 -d -1 -p GPSR -e 69 -c 2 -a 0 -i 16 -k MAC 
- -t 0.104362564 -s 36 -d -1 -p GPSR -e 69 -c 2 -a 0 -i 16 -k MAC
h -t 0.104362564 -s 36 -d -1 -p GPSR -e 69 -c 2 -a 0 -i 16 -k MAC
r -t 0.104915018 -s 7 -d -1 -p GPSR -e 11 -c 2 -a 0 -i 16 -k MAC
r -t 0.104915127 -s 33 -d -1 -p GPSR -e 11 -c 2 -a 0 -i 16 -k MAC
r -t 0.104940018 -s 7 -d -1 -p GPSR -e 11 -c 2 -a 0 -i 16 -k RTR
r -t 0.104940127 -s 33 -d -1 -p GPSR -e 11 -c 2 -a 0 -i 16 -k RTR
+ -t 0.108579730 -s 9 -d -1 -p GPSR -e 11 -c 2 -a 0 -i 17 -k RTR 
- -t 0.108579730 -s 9 -d -1 -p GPSR -e 11 -c 2 -a 0 -i 17 -k RTR
h -t 0.108579730 -s 9 -d -1 -p GPSR -e 11 -c 2 -a 0 -i 17 -k RTR
+ -t 0.109214730 -s 9 -d -1 -p GPSR -e 69 -c 2 -a 0 -i 17 -k MAC 
- -t 0.109214730 -s 9 -d -1 -p GPSR -e 69 -c 2 -a 0 -i 17 -k MAC
h -t 0.109214730 -s 9 -d -1 -p GPSR -e 69 -c 2 -a 0 -i 17 -k MAC
r -t 0.109767533 -s 0 -d -1 -p GPSR -e 11 -c 2 -a 0 -i 17 -k MAC
r -t 0.109792533 -s 0 -d -1 -p GPSR -e 11 -c 2 -a 0 -i 17 -k RTR
+ -t 0.117300876 -s 2 -d -1 -p GPSR -e 11 -c 2 -a 0 -i 18 -k RTR 
- -t 0.117300876 -s 2 -d -1 -p GPSR -e 11 -c 2 -a 0 -i 18 -k RTR
h -t 0.117300876 -s 2 -d -1 -p GPSR -e 11 -c 2 -a 0 -i 18 -k RTR
+ -t 0.117675876 -s 2 -d -1 -p GPSR -e 69 -c 2 -a 0 -i 18 -k MAC 
- -t 0.117675876 -s 2 -d -1 -p GPSR -e 69 -c 2 -a 0 -i 18 -k MAC
h -t 0.117675876 -s 2 -d -1 -p GPSR -e 69 -c 2 -a 0 -i 18 -k MAC
r -t 0.118228141 -s 11 -d -1 -p GPSR -e 11 -c 2 -a 0 -i 18 -k MAC
r -t 0.118228352 -s 37 -d -1 -p GPSR -e 11 -c 2 -a 0 -i 18 -k MAC
r -t 0.118228420 -s 10 -d -1 -p GPSR -e 11 -c 2 -a 0 -i 18 -k MAC
r -t 0.118228600 -s 28 -d -1 -p GPSR -e 11 -c 2 -a 0 -i 18 -k MAC
r -t 0.118253141 -s 11 -d -1 -p GPSR -e 11 -c 2 -a 0 -i 18 -k RTR
r -t 0.118253352 -s 37 -d -1 -p GPSR -e 11 -c 2 -a 0 -i 18 -k RTR
r -t 0.118253420 -s 10 -d -1 -p GPSR -e 11 -c 2 -a 0 -i 18 -k RTR
r -t 0.118253600 -s 28 -d -1 -p GPSR -e 11 -c 2 -a 0 -i 18 -k RTR
+ -t 0.130912074 -s 17 -d -1 -p GPSR -e 11 -c 2 -a 0 -i 19 -k RTR 
- -t 0.130912074 -s 17 -d -1 -p GPSR -e 11 -c 2 -a 0 -i 19 -k RTR
h -t 0.130912074 -s 17 -d -1 -p GPSR -e 11 -c 2 -a 0 -i 19 -k RTR
+ -t 0.131547074 -s 17 -d -1 -p GPSR -e 69 -c 2 -a 0 -i 19 -k MAC 
- -t 0.131547074 -s 17 -d -1 -p GPSR -e 69 -c 2 -a 0 -i 19 -k MAC
h -t 0.131547074 -s 17 -d -1 -p GPSR -e 69 -c 2 -a 0 -i 19 -k MAC
r -t 0.132099812 -s 26 -d -1 -p GPSR -e 11 -c 2 -a 0 -i 19 -k MAC
r -t 0.132124812 -s 26 -d -1 -p GPSR -e 11 -c 2 -a 0 -i 19 -k RTR
+ -t 0.166107214 -s 30 -d -1 -p GPSR -e 11 -c 2 -a 0 -i 25 -k RTR 
- -t 0.166107214 -s 30 -d -1 -p GPSR -e 11 -c 2 -a 0 -i 25 -k RTR
h -t 0.166107214 -s 30 -d -1 -p GPSR -e 11 -c 2 -a 0 -i 25 -k RTR
+ -t 0.166542214 -s 30 -d -1 -p GPSR -e 69 -c 2 -a 0 -i 25 -k MAC 
- -t 0.166542214 -s 30 -d -1 -p GPSR -e 69 -c 2 -a 0 -i 25 -k MAC
h -t 0.166542214 -s 30 -d -1 -p GPSR -e 69 -c 2 -a 0 -i 25 -k MAC
r -t 0.167094637 -s 28 -d -1 -p GPSR -e 11 -c 2 -a 0 -i 25 -k MAC
r -t 0.167119637 -s 28 -d -1 -p GPSR -e 11 -c 2 -a 0 -i 25 -k RTR
+ -t 0.186801923 -s 29 -d -1 -p GPSR -e 11 -c 2 -a 0 -i 26 -k RTR 
- -t 0.186801923 -s 29 -d -1 -p GPSR -e 11 -c 2 -a 0 -i 26 -k RTR
h -t 0.186801923 -s 29 -d -1 -p GPSR -e 11 -c 2 -a 0 -i 26 -k RTR
+ -t 0.186916923 -s 29 -d -1 -p GPSR -e 69 -c 2 -a 0 -i 26 -k MAC 
- -t 0.186916923 -s 29 -d -1 -p GPSR -e 69 -c 2 -a 0 -i 26 -k MAC
h -t 0.186916923 -s 29 -d -1 -p GPSR -e 69 -c 2 -a 0 -i 26 -k MAC
r -t 0.187469455 -s 19 -d -1 -p GPSR -e 11 -c 2 -a 0 -i 26 -k MAC
r -t 0.187469621 -s 38 -d -1 -p GPSR -e 11 -c 2 -a 0 -i 26 -k MAC
r -t 0.187469745 -s 23 -d -1 -p GPSR -e 11 -c 2 -a 0 -i 26 -k MAC
r -t 0.187494455 -s 19 -d -1 -p GPSR -e 11 -c 2 -a 0 -i 26 -k RTR
r -t 0.187494621 -s 38 -d -1 -p GPSR -e 11 -c 2 -a 0 -i 26 -k RTR
r -t 0.187494745 -s 23 -d -1 -p GPSR -e 11 -c 2 -a 0 -i 26 -k RTR
+ -t 0.202759539 -s 11 -d -1 -p GPSR -e 11 -c 2 -a 0 -i 27 -k RTR 
- -t 0.202759539 -s 11 -d -1 -p GPSR -e 11 -c 2 -a 0 -i 27 -k RTR
h -t 0.202759539 -s 11 -d -1 -p GPSR -e 11 -c 2 -a 0 -i 27 -k RTR
+ -t 0.203114539 -s 11 -d -1 -p GPSR -e 69 -c 2 -a 0 -i 27 -k MAC 
- -t 0.203114539 -s 11 -d -1 -p GPSR -e 69 -c 2 -a 0 -i 27 -k MAC
h -t 0.203114539 -s 11 -d -1 -p GPSR -e 69 -c 2 -a 0 -i 27 -k MAC
r -t 0.203666799 -s 2 -d -1 -p GPSR -e 11 -c 2 -a 0 -i 27 -k MAC
r -t 0.203666912 -s 10 -d -1 -p GPSR -e 11 -c 2 -a 0 -i 27 -k MAC
r -t 0.203666994 -s 37 -d -1 -p GPSR -e 11 -c 2 -a 0 -i 27 -k MAC
r -t 0.203691799 -s 2 -d -1 -p GPSR -e 11 -c 2 -a 0 -i 27 -k RTR
r -t 0.203691912 -s 10 -d -1 -p GPSR -e 11 -c 2 -a 0 -i 27 -k RTR
r -t 0.203691994 -s 37 -d -1 -p GPSR -e 11 -c 2 -a 0 -i 27 -k RTR
+ -t 0.204342838 -s 7 -d -1 -p GPSR -e 11 -c 2 -a 0 -i 28 -k RTR 
- -t 0.204342838 -s 7 -d -1 -p GPSR -e 11 -c 2 -a 0 -i 28 -k RTR
h -t 0.204342838 -s 7 -d -1 -p GPSR -e 11 -c 2 -a 0 -i 28 -k RTR
+ -t 0.204757838 -s 7 -d -1 -p GPSR -e 69 -c 2 -a 0 -i 28 -k MAC 
- -t 0.204757838 -s 7 -d -1 -p GPSR -e 69 -c 2 -a 0 -i 28 -k MAC
h -t 0.204757838 -s 7 -d -1 -p GPSR -e 69 -c 2 -a 0 -i 28 -k MAC
r -t 0.205310018 -s 33 -d -1 -p GPSR -e 11 -c 2 -a 0 -i 28 -k MAC
r -t 0.205310291 -s 36 -d -1 -p GPSR -e 11 -c 2 -a 0 -i 28 -k MAC
r -t 0.205335018 -s 33 -d -1 -p GPSR -e 11 -c 2 -a 0 -i 28 -k RTR
r -t 0.205335291 -s 36 -d -1 -p GPSR -e 11 -c 2 -a 0 -i 28 -k RTR
+ -t 0.211466194 -s 39 -d -1 -p GPSR -e 11 -c 2 -a 0 -i 29 -k RTR 
- -t 0.211466194 -s 39 -d -1 -p GPSR -e 11 -c 2 -a 0 -i 29 -k RTR
h -t 0.211466194 -s 39 -d -1 -p GPSR -e 11 -c 2 -a 0 -i 29 -k RTR
+ -t 0.211828368 -s 5 -d -1 -p GPSR -e 11 -c 2 -a 0 -i 30 -k RTR 
- -t 0.211828368 -s 5 -d -1 -p GPSR -e 11 -c 2 -a 0 -i 30 -k RTR
h -t 0.211828368 -s 5 -d -1 -p GPSR -e 11 -c 2 -a 0 -i 30 -k RTR
+ -t 0.211903368 -s 5 -d -1 -p GPSR -e 69 -c 2 -a 0 -i 30 -k MAC 
- -t 0.211903368 -s 5 -d -1 -p GPSR -e 69 -c 2 -a 0 -i 30 -k MAC
h -t 0.211903368 -s 5 -d -1 -p GPSR -e 69 -c 2 -a 0 -i 30 -k MAC
+ -t 0.212001194 -s 39 -d -1 -p GPSR -e 69 -c 2 -a 0 -i 29 -k MAC 
- -t 0.212001194 -s 39 -d -1 -p GPSR -e 69 -c 2 -a 0 -i 29 -k MAC
h -t 0.212001194 -s 39 -d -1 -p GPSR -e 69 -c 2 -a 0 -i 29 -k MAC
+ -t 0.218611088 -s 37 -d -1 -p GPSR -e 11 -c 2 -a 0 -i 31 -k RTR 
- -t 0.218611088 -s 37 -d -1 -p GPSR -e 11 -c 2 -a 0 -i 31 -k RTR
h -t 0.218611088 -s 37 -d -1 -p GPSR -e 11 -c 2 -a 0 -i 31 -k RTR
+ -t 0.219086088 -s 37 -d -1 -p GPSR -e 69 -c 2 -a 0 -i 31 -k MAC 
- -t 0.219086088 -s 37 -d -1 -p GPSR -e 69 -c 2 -a 0 -i 31 -k MAC
h -t 0.219086088 -s 37 -d -1 -p GPSR -e 69 -c 2 -a 0 -i 31 -k MAC
r -t 0.219638373 -s 10 -d -1 -p GPSR -e 11 -c 2 -a 0 -i 31 -k MAC
r -t 0.219638543 -s 11 -d -1 -p GPSR -e 11 -c 2 -a 0 -i 31 -k MAC
r -t 0.219638557 -s 2 -d -1 -p GPSR -e 11 -c 2 -a 0 -i 31 -k MAC
r -t 0.219663373 -s 10 -d -1 -p GPSR -e 11 -c 2 -a 0 -i 31 -k RTR
r -t 0.219663543 -s 11 -d -1 -p GPSR -e 11 -c 2 -a 0 -i 31 -k RTR
r -t 0.219663557 -s 2 -d -1 -p GPSR -e 11 -c 2 -a 0 -i 31 -k RTR
+ -t 0.290314779 -s 19 -d 22 -p HLS -e 38 -c 2 -a 0 -i 33 -k RTR 
- -t 0.290314779 -s 19 -d 22 -p HLS -e 38 -c 2 -a 0 -i 33 -k RTR
h -t 0.290314779 -s 19 -d 22 -p HLS -e 38 -c 2 -a 0 -i 33 -k RTR
+ -t 0.290969779 -s 19 -d -1 -p ARP -e 86 -c 2 -a 0 -i 0 -k MAC 
- -t 0.290969779 -s 19 -d -1 -p ARP -e 86 -c 2 -a 0 -i 0 -k MAC
h -t 0.290969779 -s 19 -d -1 -p ARP -e 86 -c 2 -a 0 -i 0 -k MAC
r -t 0.291658296 -s 38 -d -1 -p ARP -e 28 -c 2 -a 0 -i 0 -k MAC
r -t 0.291658314 -s 29 -d -1 -p ARP -e 28 -c 2 -a 0 -i 0 -k MAC
r -t 0.291658554 -s 22 -d -1 -p ARP -e 28 -c 2 -a 0 -i 0 -k MAC
+ -t 0.291873554 -s 22 -d -1 -p RTS -e 44 -c 2 -a 0 -i 0 -k MAC 
- -t 0.291873554 -s 22 -d -1 -p RTS -e 44 -c 2 -a 0 -i 0 -k MAC
h -t 0.291873554 -s 22 -d -1 -p RTS -e 44 -c 2 -a 0 -i 0 -k MAC
r -t 0.292226329 -s 19 -d -1 -p RTS -e 44 -c 2 -a 0 -i 0 -k MAC
+ -t 0.292236329 -s 19 -d -1 -p CTS -e 38 -c 2 -a 0 -i 0 -k MAC 
- -t 0.292236329 -s 19 -d -1 -p CTS -e 38 -c 2 -a 0 -i 0 -k MAC
h -t 0.292236329 -s 19 -d -1 -p CTS -e 38 -c 2 -a 0 -i 0 -k MAC
r -t 0.292541105 -s 22 -d -1 -p CTS -e 38 -c 2 -a 0 -i 0 -k MAC
+ -t 0.292551105 -s 22 -d -1 -p ARP -e 86 -c 2 -a 0 -i 0 -k MAC 
- -t 0.292551105 -s 22 -d -1 -p ARP -e 86 -c 2 -a 0 -i 0 -k MAC
h -t 0.292551105 -s 22 -d -1 -p ARP -e 86 -c 2 -a 0 -i 0 -k MAC
r -t 0.293239880 -s 19 -d -1 -p ARP -e 28 -c 2 -a 0 -i 0 -k MAC
+ -t 0.293249880 -s 19 -d -1 -p ACK -e 38 -c 2 -a 0 -i 0 -k MAC 
- -t 0.293249880 -s 19 -d -1 -p ACK -e 38 -c 2 -a 0 -i 0 -k MAC
h -t 0.293249880 -s 19 -d -1 -p ACK -e 38 -c 2 -a 0 -i 0 -k MAC
r -t 0.293554655 -s 22 -d -1 -p ACK -e 38 -c 2 -a 0 -i 0 -k MAC
+ -t 0.294023880 -s 19 -d -1 -p RTS -e 44 -c 2 -a 0 -i 0 -k MAC 
- -t 0.294023880 -s 19 -d -1 -p RTS -e 44 -c 2 -a 0 -i 0 -k MAC
h -t 0.294023880 -s 19 -d -1 -p RTS -e 44 -c 2 -a 0 -i 0 -k MAC
r -t 0.294376655 -s 22 -d -1 -p RTS -e 44 -c 2 -a 0 -i 0 -k MAC
+ -t 0.294386655 -s 22 -d -1 -p CTS -e 38 -c 2 -a 0 -i 0 -k MAC 
- -t 0.294386655 -s 22 -d -1 -p CTS -e 38 -c 2 -a 0 -i 0 -k MAC
h -t 0.294386655 -s 22 -d -1 -p CTS -e 38 -c 2 -a 0 -i 0 -k MAC
r -t 0.294691431 -s 19 -d -1 -p CTS -e 38 -c 2 -a 0 -i 0 -k MAC
+ -t 0.294701431 -s 19 -d 22 -p HLS -e 96 -c 2 -a 0 -i 33 -k MAC 
- -t 0.294701431 -s 19 -d 22 -p HLS -e 96 -c 2 -a 0 -i 33 -k MAC
h -t 0.294701431 -s 19 -d 22 -p HLS -e 96 -c 2 -a 0 -i 33 -k MAC
r -t 0.295470206 -s 22 -d 22 -p HLS -e 38 -c 2 -a 0 -i 33 -k MAC
+ -t 0.295480206 -s 22 -d -1 -p ACK -e 38 -c 2 -a 0 -i 0 -k MAC 
- -t 0.295480206 -s 22 -d -1 -p ACK -e 38 -c 2 -a 0 -i 0 -k MAC
h -t 0.295480206 -s 22 -d -1 -p ACK -e 38 -c 2 -a 0 -i 0 -k MAC
+ -t 0.295495206 -s 22 -d -1 -p HLS -e 0 -c 2 -a 0 -i 34 -k RTR 
- -t 0.295495206 -s 22 -d -1 -p HLS -e 0 -c 2 -a 0 -i 34 -k RTR
h -t 0.295495206 -s 22 -d -1 -p HLS -e 0 -c 2 -a 0 -i 34 -k RTR
r -t 0.295784981 -s 19 -d -1 -p ACK -e 38 -c 2 -a 0 -i 0 -k MAC
+ -t 0.296414206 -s 22 -d -1 -p HLS -e 58 -c 2 -a 0 -i 34 -k MAC 
- -t 0.296414206 -s 22 -d -1 -p HLS -e 58 -c 2 -a 0 -i 34 -k MAC
h -t 0.296414206 -s 22 -d -1 -p HLS -e 58 -c 2 -a 0 -i 34 -k MAC
r -t 0.296878473 -s 38 -d -1 -p HLS -e 0 -c 2 -a 0 -i 34 -k MAC
r -t 0.296878981 -s 19 -d -1 -p HLS -e 0 -c 2 -a 0 -i 34 -k MAC
r -t 0.296903473 -s 38 -d -1 -p HLS -e 0 -c 2 -a 0 -i 34 -k RTR
r -t 0.296903981 -s 19 -d -1 -p HLS -e 0 -c 2 -a 0 -i 34 -k RTR
+ -t 0.320033830 -s 4 -d -1 -p GPSR -e 11 -c 2 -a 0 -i 35 -k RTR 
- -t 0.320033830 -s 4 -d -1 -p GPSR -e 11 -c 2 -a 0 -i 35 -k RTR
h -t 0.320033830 -s 4 -d -1 -p GPSR -e 11 -c 2 -a 0 -i 35 -k RTR
+ -t 0.320588830 -s 4 -d -1 -p GPSR -e 69 -c 2 -a 0 -i 35 -k MAC 
- -t 0.320588830 -s 4 -d -1 -p GPSR -e 69 -c 2 -a 0 -i 35 -k MAC
h -t 0.320588830 -s 4 -d -1 -p GPSR -e 69 -c 2 -a 0 -i 35 -k MAC
r -t 0.321141513 -s 13 -d -1 -p GPSR -e 11 -c 2 -a 0 -i 35 -k MAC
r -t 0.321166513 -s 13 -d -1 -p GPSR -e 11 -c 2 -a 0 -i 35 -k RTR
+ -t 0.338674472 -s 10 -d -1 -p GPSR -e 11 -c 2 -a 0 -i 36 -k RTR 
- -t 0.338674472 -s 10 -d -1 -p GPSR -e 11 -c 2 -a 0 -i 36 -k RTR
h -t 0.338674472 -s 10 -d -1 -p GPSR -e 11 -c 2 -a 0 -i 36 -k RTR
+ -t 0.338853877 -s 36 -d 7 -p HLS -e 64 -c 2 -a 0 -i 38 -k RTR 
- -t 0.338853877 -s 36 -d 7 -p HLS -e 64 -c 2 -a 0 -i 38 -k RTR
h -t 0.338853877 -s 36 -d 7 -p HLS -e 64 -c 2 -a 0 -i 38 -k RTR
+ -t 0.339108877 -s 36 -d -1 -p ARP -e 86 -c 2 -a 0 -i 0 -k MAC 
- -t 0.339108877 -s 36 -d -1 -p ARP -e 86 -c 2 -a 0 -i 0 -k MAC
h -t 0.339108877 -s 36 -d -1 -p ARP -e 86 -c 2 -a 0 -i 0 -k MAC
+ -t 0.339229472 -s 10 -d -1 -p GPSR -e 69 -c 2 -a 0 -i 36 -k MAC 
- -t 0.339229472 -s 10 -d -1 -p GPSR -e 69 -c 2 -a 0 -i 36 -k MAC
h -t 0.339229472 -s 10 -d -1 -p GPSR -e 69 -c 2 -a 0 -i 36 -k MAC
r -t 0.339781759 -s 37 -d -1 -p GPSR -e 11 -c 2 -a 0 -i 36 -k MAC
r -t 0.339781842 -s 11 -d -1 -p GPSR -e 11 -c 2 -a 0 -i 36 -k MAC
r -t 0.339782002 -s 2 -d -1 -p GPSR -e 11 -c 2 -a 0 -i 36 -k MAC
r -t 0.339797329 -s 7 -d -1 -p ARP -e 28 -c 2 -a 0 -i 0 -k MAC
r -t 0.339797432 -s 33 -d -1 -p ARP -e 28 -c 2 -a 0 -i 0 -k MAC
r -t 0.339806759 -s 37 -d -1 -p GPSR -e 11 -c 2 -a 0 -i 36 -k RTR
r -t 0.339806842 -s 11 -d -1 -p GPSR -e 11 -c 2 -a 0 -i 36 -k RTR
r -t 0.339807002 -s 2 -d -1 -p GPSR -e 11 -c 2 -a 0 -i 36 -k RTR
+ -t 0.340272329 -s 7 -d -1 -p RTS -e 44 -c 2 -a 0 -i 0 -k MAC 
- -t 0.340272329 -s 7 -d -1 -p RTS -e 44 -c 2 -a 0 -i 0 -k MAC
h -t 0.340272329 -s 7 -d -1 -p RTS -e 44 -c 2 -a 0 -i 0 -k MAC
r -t 0.340624781 -s 36 -d -1 -p RTS -e 44 -c 2 -a 0 -i 0 -k MAC
+ -t 0.340634781 -s 36 -d -1 -p CTS -e 38 -c 2 -a 0 -i 0 -k MAC 
- -t 0.340634781 -s 36 -d -1 -p CTS -e 38 -c 2 -a 0 -i 0 -k MAC
h -t 0.340634781 -s 36 -d -1 -p CTS -e 38 -c 2 -a 0 -i 0 -k MAC
r -t 0.340939233 -s 7 -d -1 -p CTS -e 38 -c 2 -a 0 -i 0 -k MAC
+ -t 0.340949233 -s 7 -d -1 -p ARP -e 86 -c 2 -a 0 -i 0 -k MAC 
- -t 0.340949233 -s 7 -d -1 -p ARP -e 86 -c 2 -a 0 -i 0 -k MAC
h -t 0.340949233 -s 7 -d -1 -p ARP -e 86 -c 2 -a 0 -i 0 -k MAC
r -t 0.341637685 -s 36 -d -1 -p ARP -e 28 -c 2 -a 0 -i 0 -k MAC
+ -t 0.341647685 -s 36 -d -1 -p ACK -e 38 -c 2 -a 0 -i 0 -k MAC 
- -t 0.341647685 -s 36 -d -1 -p ACK -e 38 -c 2 -a 0 -i 0 -k MAC
h -t 0.341647685 -s 36 -d -1 -p ACK -e 38 -c 2 -a 0 -i 0 -k MAC
r -t 0.341952137 -s 7 -d -1 -p ACK -e 38 -c 2 -a 0 -i 0 -k MAC
+ -t 0.342181685 -s 36 -d -1 -p RTS -e 44 -c 2 -a 0 -i 0 -k MAC 
- -t 0.342181685 -s 36 -d -1 -p RTS -e 44 -c 2 -a 0 -i 0 -k MAC
h -t 0.342181685 -s 36 -d -1 -p RTS -e 44 -c 2 -a 0 -i 0 -k MAC
r -t 0.342534137 -s 7 -d -1 -p RTS -e 44 -c 2 -a 0 -i 0 -k MAC
+ -t 0.342544137 -s 7 -d -1 -p CTS -e 38 -c 2 -a 0 -i 0 -k MAC 
- -t 0.342544137 -s 7 -d -1 -p CTS -e 38 -c 2 -a 0 -i 0 -k MAC
h -t 0.342544137 -s 7 -d -1 -p CTS -e 38 -c 2 -a 0 -i 0 -k MAC
r -t 0.342848589 -s 36 -d -1 -p CTS -e 38 -c 2 -a 0 -i 0 -k MAC
+ -t 0.342858589 -s 36 -d 7 -p HLS -e 122 -c 2 -a 0 -i 38 -k MAC 
- -t 0.342858589 -s 36 -d 7 -p HLS -e 122 -c 2 -a 0 -i 38 -k MAC
h -t 0.342858589 -s 36 -d 7 -p HLS -e 122 -c 2 -a 0 -i 38 -k MAC
r -t 0.343835041 -s 7 -d 7 -p HLS -e 64 -c 2 -a 0 -i 38 -k MAC
+ -t 0.343845041 -s 7 -d -1 -p ACK -e 38 -c 2 -a 0 -i 0 -k MAC 
- -t 0.343845041 -s 7 -d -1 -p ACK -e 38 -c 2 -a 0 -i 0 -k MAC
h -t 0.343845041 -s 7 -d -1 -p ACK -e 38 -c 2 -a 0 -i 0 -k MAC
+ -t 0.343860041 -s 7 -d 36 -p HLS -e 64 -c 2 -a 0 -i 38 -k RTR 
- -t 0.343860041 -s 7 -d 36 -p HLS -e 64 -c 2 -a 0 -i 38 -k RTR
h -t 0.343860041 -s 7 -d 36 -p HLS -e 64 -c 2 -a 0 -i 38 -k RTR
r -t 0.344149492 -s 36 -d -1 -p ACK -e 38 -c 2 -a 0 -i 0 -k MAC
+ -t 0.344499041 -s 7 -d -1 -p RTS -e 44 -c 2 -a 0 -i 0 -k MAC 
- -t 0.344499041 -s 7 -d -1 -p RTS -e 44 -c 2 -a 0 -i 0 -k MAC
h -t 0.344499041 -s 7 -d -1 -p RTS -e 44 -c 2 -a 0 -i 0 -k MAC
r -t 0.344851492 -s 36 -d -1 -p RTS -e 44 -c 2 -a 0 -i 0 -k MAC
+ -t 0.344861492 -s 36 -d -1 -p CTS -e 38 -c 2 -a 0 -i 0 -k MAC 
- -t 0.344861492 -s 36 -d -1 -p CTS -e 38 -c 2 -a 0 -i 0 -k MAC
h -t 0.344861492 -s 36 -d -1 -p CTS -e 38 -c 2 -a 0 -i 0 -k MAC
r -t 0.345165944 -s 7 -d -1 -p CTS -e 38 -c 2 -a 0 -i 0 -k MAC
+ -t 0.345175944 -s 7 -d 36 -p HLS -e 122 -c 2 -a 0 -i 38 -k MAC 
- -t 0.345175944 -s 7 -d 36 -p HLS -e 122 -c 2 -a 0 -i 38 -k MAC
h -t 0.345175944 -s 7 -d 36 -p HLS -e 122 -c 2 -a 0 -i 38 -k MAC
r -t 0.346152396 -s 36 -d 36 -p HLS -e 64 -c 2 -a 0 -i 38 -k MAC
+ -t 0.346153416 -s 8 -d -1 -p GPSR -e 11 -c 2 -a 0 -i 39 -k RTR 
- -t 0.346153416 -s 8 -d -1 -p GPSR -e 11 -c 2 -a 0 -i 39 -k RTR
h -t 0.346153416 -s 8 -d -1 -p GPSR -e 11 -c 2 -a 0 -i 39 -k RTR
+ -t 0.346162396 -s 36 -d -1 -p ACK -e 38 -c 2 -a 0 -i 0 -k MAC 
- -t 0.346162396 -s 36 -d -1 -p ACK -e 38 -c 2 -a 0 -i 0 -k MAC
h -t 0.346162396 -s 36 -d -1 -p ACK -e 38 -c 2 -a 0 -i 0 -k MAC
+ -t 0.346177396 -s 36 -d 7 -p HLS -e 64 -c 2 -a 0 -i 40 -k RTR 
- -t 0.346177396 -s 36 -d 7 -p HLS -e 64 -c 2 -a 0 -i 40 -k RTR
h -t 0.346177396 -s 36 -d 7 -p HLS -e 64 -c 2 -a 0 -i 40 -k RTR
r -t 0.346466848 -s 7 -d -1 -p ACK -e 38 -c 2 -a 0 -i 0 -k MAC
+ -t 0.346608416 -s 8 -d -1 -p GPSR -e 69 -c 2 -a 0 -i 39 -k MAC 
- -t 0.346608416 -s 8 -d -1 -p GPSR -e 69 -c 2 -a 0 -i 39 -k MAC
h -t 0.346608416 -s 8 -d -1 -p GPSR -e 69 -c 2 -a 0 -i 39 -k MAC
+ -t 0.346796396 -s 36 -d -1 -p RTS -e 44 -c 2 -a 0 -i 0 -k MAC 
- -t 0.346796396 -s 36 -d -1 -p RTS -e 44 -c 2 -a 0 -i 0 -k MAC
h -t 0.346796396 -s 36 -d -1 -p RTS -e 44 -c 2 -a 0 -i 0 -k MAC
r -t 0.347148848 -s 7 -d -1 -p RTS -e 44 -c 2 -a 0 -i 0 -k MAC
+ -t 0.347158848 -s 7 -d -1 -p CTS -e 38 -c 2 -a 0 -i 0 -k MAC 
- -t 0.347158848 -s 7 -d -1 -p CTS -e 38 -c 2 -a 0 -i 0 -k MAC
h -t 0.347158848 -s 7 -d -1 -p CTS -e 38 -c 2 -a 0 -i 0 -k MAC
r -t 0.347160827 -s 27 -d -1 -p GPSR -e 11 -c 2 -a 0 -i 39 -k MAC
r -t 0.347160837 -s 0 -d -1 -p GPSR -e 11 -c 2 -a 0 -i 39 -k MAC
r -t 0.347185827 -s 27 -d -1 -p GPSR -e 11 -c 2 -a 0 -i 39 -k RTR
r -t 0.347185837 -s 0 -d -1 -p GPSR -e 11 -c 2 -a 0 -i 39 -k RTR
r -t 0.347463300 -s 36 -d -1 -p CTS -e 38 -c 2 -a 0 -i 0 -k MAC
+ -t 0.347473300 -s 36 -d 7 -p HLS -e 122 -c 2 -a 0 -i 40 -k MAC 
- -t 0.347473300 -s 36 -d 7 -p HLS -e 122 -c 2 -a 0 -i 40 -k MAC
h -t 0.347473300 -s 36 -d 7 -p HLS -e 122 -c 2 -a 0 -i 40 -k MAC
r -t 0.348449752 -s 7 -d 7 -p HLS -e 64 -c 2 -a 0 -i 40 -k MAC
+ -t 0.348459752 -s 7 -d -1 -p ACK -e 38 -c 2 -a 0 -i 0 -k MAC 
- -t 0.348459752 -s 7 -d -1 -p ACK -e 38 -c 2 -a 0 -i 0 -k MAC
h -t 0.348459752 -s 7 -d -1 -p ACK -e 38 -c 2 -a 0 -i 0 -k MAC
+ -t 0.348474752 -s 7 -d 36 -p HLS -e 64 -c 2 -a 0 -i 40 -k RTR 
- -t 0.348474752 -s 7 -d 36 -p HLS -e 64 -c 2 -a 0 -i 40 -k RTR
h -t 0.348474752 -s 7 -d 36 -p HLS -e 64 -c 2 -a 0 -i 40 -k RTR
r -t 0.348764204 -s 36 -d -1 -p ACK -e 38 -c 2 -a 0 -i 0 -k MAC
+ -t 0.349153752 -s 7 -d -1 -p RTS -e 44 -c 2 -a 0 -i 0 -k MAC 
- -t 0.349153752 -s 7 -d -1 -p RTS -e 44 -c 2 -a 0 -i 0 -k MAC
h -t 0.349153752 -s 7 -d -1 -p RTS -e 44 -c 2 -a 0 -i 0 -k MAC
+ -t 0.349336613 -s 16 -d -1 -p GPSR -e 11 -c 2 -a 0 -i 41 -k RTR 
- -t 0.349336613 -s 16 -d -1 -p GPSR -e 11 -c 2 -a 0 -i 41 -k RTR
h -t 0.349336613 -s 16 -d -1 -p GPSR -e 11 -c 2 -a 0 -i 41 -k RTR
r -t 0.349506204 -s 36 -d -1 -p RTS -e 44 -c 2 -a 0 -i 0 -k MAC
+ -t 0.349516204 -s 36 -d -1 -p CTS -e 38 -c 2 -a 0 -i 0 -k MAC 
- -t 0.349516204 -s 36 -d -1 -p CTS -e 38 -c 2 -a 0 -i 0 -k MAC
h -t 0.349516204 -s 36 -d -1 -p CTS -e 38 -c 2 -a 0 -i 0 -k MAC
+ -t 0.349611613 -s 16 -d -1 -p GPSR -e 69 -c 2 -a 0 -i 41 -k MAC 
- -t 0.349611613 -s 16 -d -1 -p GPSR -e 69 -c 2 -a 0 -i 41 -k MAC
h -t 0.349611613 -s 16 -d -1 -p GPSR -e 69 -c 2 -a 0 -i 41 -k MAC
r -t 0.349820655 -s 7 -d -1 -p CTS -e 38 -c 2 -a 0 -i 0 -k MAC
+ -t 0.349830655 -s 7 -d 36 -p HLS -e 122 -c 2 -a 0 -i 40 -k MAC 
- -t 0.349830655 -s 7 -d 36 -p HLS -e 122 -c 2 -a 0 -i 40 -k MAC
h -t 0.349830655 -s 7 -d 36 -p HLS -e 122 -c 2 -a 0 -i 40 -k MAC
r -t 0.350164147 -s 6 -d -1 -p GPSR -e 11 -c 2 -a 0 -i 41 -k MAC
r -t 0.350189147 -s 6 -d -1 -p GPSR -e 11 -c 2 -a 0 -i 41 -k RTR
r -t 0.350807107 -s 36 -d 36 -p HLS -e 64 -c 2 -a 0 -i 40 -k MAC
+ -t 0.350817107 -s 36 -d -1 -p ACK -e 38 -c 2 -a 0 -i 0 -k MAC 
- -t 0.350817107 -s 36 -d -1 -p ACK -e 38 -c 2 -a 0 -i 0 -k MAC
h -t 0.350817107 -s 36 -d -1 -p ACK -e 38 -c 2 -a 0 -i 0 -k MAC
+ -t 0.350832107 -s 36 -d 7 -p HLS -e 64 -c 2 -a 0 -i 42 -k RTR 
- -t 0.350832107 -s 36 -d 7 -p HLS -e 64 -c 2 -a 0 -i 42 -k RTR
h -t 0.350832107 -s 36 -d 7 -p HLS -e 64 -c 2 -a 0 -i 42 -k RTR
r -t 0.351121559 -s 7 -d -1 -p ACK -e 38 -c 2 -a 0 -i 0 -k MAC
+ -t 0.351551107 -s 36 -d -1 -p RTS -e 44 -c 2 -a 0 -i 0 -k MAC 
- -t 0.351551107 -s 36 -d -1 -p RTS -e 44 -c 2 -a 0 -i 0 -k MAC
h -t 0.351551107 -s 36 -d -1 -p RTS -e 44 -c 2 -a 0 -i 0 -k MAC
r -t 0.351903559 -s 7 -d -1 -p RTS -e 44 -c 2 -a 0 -i 0 -k MAC
+ -t 0.351913559 -s 7 -d -1 -p CTS -e 38 -c 2 -a 0 -i 0 -k MAC 
- -t 0.351913559 -s 7 -d -1 -p CTS -e 38 -c 2 -a 0 -i 0 -k MAC
h -t 0.351913559 -s 7 -d -1 -p CTS -e 38 -c 2 -a 0 -i 0 -k MAC
r -t 0.352218011 -s 36 -d -1 -p CTS -e 38 -c 2 -a 0 -i 0 -k MAC
+ -t 0.352228011 -s 36 -d 7 -p HLS -e 122 -c 2 -a 0 -i 42 -k MAC 
- -t 0.352228011 -s 36 -d 7 -p HLS -e 122 -c 2 -a 0 -i 42 -k MAC
h -t 0.352228011 -s 36 -d 7 -p HLS -e 122 -c 2 -a 0 -i 42 -k MAC
r -t 0.353204463 -s 7 -d 7 -p HLS -e 64 -c 2 -a 0 -i 42 -k MAC
+ -t 0.353214463 -s 7 -d -1 -p ACK -e 38 -c 2 -a 0 -i 0 -k MAC 
- -t 0.353214463 -s 7 -d -1 -p ACK -e 38 -c 2 -a 0 -i 0 -k MAC