M 0.00000 0 (14.00, 5.00, 0.00), (14.00, 5.00), 0.00
M 0.00000 1 (14.00, 8.00, 0.00), (14.00, 8.00), 0.00
M 0.00000 2 (11.00, 7.50, 0.00), (11.00, 7.50), 0.00
M 0.00000 3 (9.00, 7.00, 0.00), (9.00, 7.00), 0.00
M 0.00000 4 (7.00, 8.00, 0.00), (7.00, 8.00), 0.00
M 0.00000 5 (7.00, 10.00, 0.00), (7.00, 10.00), 0.00
M 0.00000 6 (10.00, 10.00, 0.00), (10.00, 10.00), 0.00
M 0.00000 7 (12.00, 12.00, 0.00), (12.00, 12.00), 0.00
M 0.00000 8 (14.00, 14.00, 0.00), (14.00, 14.00), 0.00
M 0.00000 9 (15.00, 15.00, 0.00), (15.00, 15.00), 0.00
M 0.00000 10 (16.00, 13.00, 0.00), (16.00, 13.00), 0.00
M 0.00000 11 (19.00, 10.50, 0.00), (19.00, 10.00), 0.00
M 0.00000 14 (17.50, 7.50, 0.00), (17.00, 7.50), 0.00
s -t 0.005404169 -Hs 14 -Hd -1 -Ni 14 -Nx 17.50 -Ny 7.50 -Nz 0.00 -Ne -1.000000 -Nl RTR -Nw --- -Ma 0 -Md 0 -Ms 0 -Mt 0 -Is 14.255 -Id -1.255 -It undefined -Il 11 -If 0 -Ii 0 -Iv 32 4 0 [-1 -1]
s -t 0.005979169 -Hs 14 -Hd -1 -Ni 14 -Nx 17.50 -Ny 7.50 -Nz 0.00 -Ne -1.000000 -Nl MAC -Nw --- -Ma 0 -Md ffffffff -Ms e -Mt 800 -Is 14.255 -Id -1.255 -It undefined -Il 69 -If 0 -Ii 0 -Iv 32 4 0 [-1 -1]
r -t 0.006531180 -Hs 11 -Hd -1 -Ni 11 -Nx 19.00 -Ny 10.50 -Nz 0.00 -Ne -1.000000 -Nl MAC -Nw --- -Ma 0 -Md ffffffff -Ms e -Mt 800 -Is 14.255 -Id -1.255 -It undefined -Il 11 -If 0 -Ii 0 -Iv 32 4 1 [-1 -1]
r -t 0.006531181 -Hs 1 -Hd -1 -Ni 1 -Nx 14.00 -Ny 8.00 -Nz 0.00 -Ne -1.000000 -Nl MAC -Nw --- -Ma 0 -Md ffffffff -Ms e -Mt 800 -Is 14.255 -Id -1.255 -It undefined -Il 11 -If 0 -Ii 0 -Iv 32 4 1 [-1 -1]
r -t 0.006531181 -Hs 13 -Hd -1 -Ni 13 -Nx 21.00 -Ny 8.00 -Nz 0.00 -Ne -1.000000 -Nl MAC -Nw --- -Ma 0 -Md ffffffff -Ms e -Mt 800 -Is 14.255 -Id -1.255 -It undefined -Il 11 -If 0 -Ii 0 -Iv 32 4 1 [-1 -1]
r -t 0.006531183 -Hs 0 -Hd -1 -Ni 0 -Nx 14.00 -Ny 5.00 -Nz 0.00 -Ne -1.000000 -Nl MAC -Nw --- -Ma 0 -Md ffffffff -Ms e -Mt 800 -Is 14.255 -Id -1.255 -It undefined -Il 11 -If 0 -Ii 0 -Iv 32 4 1 [-1 -1]
r -t 0.006531183 -Hs 12 -Hd -1 -Ni 12 -Nx 21.00 -Ny 10.00 -Nz 0.00 -Ne -1.000000 -Nl MAC -Nw --- -Ma 0 -Md ffffffff -Ms e -Mt 800 -Is 14.255 -Id -1.255 -It undefined -Il 11 -If 0 -Ii 0 -Iv 32 4 1 [-1 -1]
r -t 0.006531188 -Hs 10 -Hd -1 -Ni 10 -Nx 16.00 -Ny 13.00 -Nz 0.00 -Ne -1.000000 -Nl MAC -Nw --- -Ma 0 -Md ffffffff -Ms e -Mt 800 -Is 14.255 -Id -1.255 -It undefined -Il 11 -If 0 -Ii 0 -Iv 32 4 1 [-1 -1]
r -t 0.006531191 -Hs 2 -Hd -1 -Ni 2 -Nx 11.00 -Ny 7.50 -Nz 0.00 -Ne -1.000000 -Nl MAC -Nw --- -Ma 0 -Md ffffffff -Ms e -Mt 800 -Is 14.255 -Id -1.255 -It undefined -Il 11 -If 0 -Ii 0 -Iv 32 4 1 [-1 -1]
r -t 0.006531193 -Hs 7 -Hd -1 -Ni 7 -Nx 12.00 -Ny 12.00 -Nz 0.00 -Ne -1.000000 -Nl MAC -Nw --- -Ma 0 -Md ffffffff -Ms e -Mt 800 -Is 14.255 -Id -1.255 -It undefined -Il 11 -If 0 -Ii 0 -Iv 32 4 1 [-1 -1]
r -t 0.006531194 -Hs 8 -Hd -1 -Ni 8 -Nx 14.00 -Ny 14.00 -Nz 0.00 -Ne -1.000000 -Nl MAC -Nw --- -Ma 0 -Md ffffffff -Ms e -Mt 800 -Is 14.255 -Id -1.255 -It undefined -Il 11 -If 0 -Ii 0 -Iv 32 4 1 [-1 -1]
r -t 0.006531195 -Hs 9 -Hd -1 -Ni 9 -Nx 15.00 -Ny 15.00 -Nz 0.00 -Ne -1.000000 -Nl MAC -Nw --- -Ma 0 -Md ffffffff -Ms e -Mt 800 -Is 14.255 -Id -1.255 -It undefined -Il 11 -If 0 -Ii 0 -Iv 32 4 1 [-1 -1]
r -t 0.006531195 -Hs 6 -Hd -1 -Ni 6 -Nx 10.00 -Ny 10.00 -Nz 0.00 -Ne -1.000000 -Nl MAC -Nw --- -Ma 0 -Md ffffffff -Ms e -Mt 800 -Is 14.255 -Id -1.255 -It undefined -Il 11 -If 0 -Ii 0 -Iv 32 4 1 [-1 -1]
r -t 0.006531198 -Hs 3 -Hd -1 -Ni 3 -Nx 9.00 -Ny 7.00 -Nz 0.00 -Ne -1.000000 -Nl MAC -Nw --- -Ma 0 -Md ffffffff -Ms e -Mt 800 -Is 14.255 -Id -1.255 -It undefined -Il 11 -If 0 -Ii 0 -Iv 32 4 1 [-1 -1]
r -t 0.006531204 -Hs 4 -Hd -1 -Ni 4 -Nx 7.00 -Ny 8.00 -Nz 0.00 -Ne -1.000000 -Nl MAC -Nw --- -Ma 0 -Md ffffffff -Ms e -Mt 800 -Is 14.255 -Id -1.255 -It undefined -Il 11 -If 0 -Ii 0 -Iv 32 4 1 [-1 -1]
r -t 0.006531205 -Hs 5 -Hd -1 -Ni 5 -Nx 7.00 -Ny 10.00 -Nz 0.00 -Ne -1.000000 -Nl MAC -Nw --- -Ma 0 -Md ffffffff -Ms e -Mt 800 -Is 14.255 -Id -1.255 -It undefined -Il 11 -If 0 -Ii 0 -Iv 32 4 1 [-1 -1]
r -t 0.006556180 -Hs 11 -Hd -1 -Ni 11 -Nx 19.00 -Ny 10.50 -Nz 0.00 -Ne -1.000000 -Nl RTR -Nw --- -Ma 0 -Md ffffffff -Ms e -Mt 800 -Is 14.255 -Id -1.255 -It undefined -Il 11 -If 0 -Ii 0 -Iv 32 4 1 [1 1]
r -t 0.006556181 -Hs 1 -Hd -1 -Ni 1 -Nx 14.00 -Ny 8.00 -Nz 0.00 -Ne -1.000000 -Nl RTR -Nw --- -Ma 0 -Md ffffffff -Ms e -Mt 800 -Is 14.255 -Id -1.255 -It undefined -Il 11 -If 0 -Ii 0 -Iv 32 4 1 [1 1]
r -t 0.006556181 -Hs 13 -Hd -1 -Ni 13 -Nx 21.00 -Ny 8.00 -Nz 0.00 -Ne -1.000000 -Nl RTR -Nw --- -Ma 0 -Md ffffffff -Ms e -Mt 800 -Is 14.255 -Id -1.255 -It undefined -Il 11 -If 0 -Ii 0 -Iv 32 4 1 [1 1]
r -t 0.006556183 -Hs 0 -Hd -1 -Ni 0 -Nx 14.00 -Ny 5.00 -Nz 0.00 -Ne -1.000000 -Nl RTR -Nw --- -Ma 0 -Md ffffffff -Ms e -Mt 800 -Is 14.255 -Id -1.255 -It undefined -Il 11 -If 0 -Ii 0 -Iv 32 4 1 [1 1]
r -t 0.006556183 -Hs 12 -Hd -1 -Ni 12 -Nx 21.00 -Ny 10.00 -Nz 0.00 -Ne -1.000000 -Nl RTR -Nw --- -Ma 0 -Md ffffffff -Ms e -Mt 800 -Is 14.255 -Id -1.255 -It undefined -Il 11 -If 0 -Ii 0 -Iv 32 4 1 [1 1]
r -t 0.006556188 -Hs 10 -Hd -1 -Ni 10 -Nx 16.00 -Ny 13.00 -Nz 0.00 -Ne -1.000000 -Nl RTR -Nw --- -Ma 0 -Md ffffffff -Ms e -Mt 800 -Is 14.255 -Id -1.255 -It undefined -Il 11 -If 0 -Ii 0 -Iv 32 4 1 [1 1]
r -t 0.006556191 -Hs 2 -Hd -1 -Ni 2 -Nx 11.00 -Ny 7.50 -Nz 0.00 -Ne -1.000000 -Nl RTR -Nw --- -Ma 0 -Md ffffffff -Ms e -Mt 800 -Is 14.255 -Id -1.255 -It undefined -Il 11 -If 0 -Ii 0 -Iv 32 4 1 [1 1]
r -t 0.006556193 -Hs 7 -Hd -1 -Ni 7 -Nx 12.00 -Ny 12.00 -Nz 0.00 -Ne -1.000000 -Nl RTR -Nw --- -Ma 0 -Md ffffffff -Ms e -Mt 800 -Is 14.255 -Id -1.255 -It undefined -Il 11 -If 0 -Ii 0 -Iv 32 4 1 [1 1]
r -t 0.006556194 -Hs 8 -Hd -1 -Ni 8 -Nx 14.00 -Ny 14.00 -Nz 0.00 -Ne -1.000000 -Nl RTR -Nw --- -Ma 0 -Md ffffffff -Ms e -Mt 800 -Is 14.255 -Id -1.255 -It undefined -Il 11 -If 0 -Ii 0 -Iv 32 4 1 [1 1]
r -t 0.006556195 -Hs 9 -Hd -1 -Ni 9 -Nx 15.00 -Ny 15.00 -Nz 0.00 -Ne -1.000000 -Nl RTR -Nw --- -Ma 0 -Md ffffffff -Ms e -Mt 800 -Is 14.255 -Id -1.255 -It undefined -Il 11 -If 0 -Ii 0 -Iv 32 4 1 [1 1]
r -t 0.006556195 -Hs 6 -Hd -1 -Ni 6 -Nx 10.00 -Ny 10.00 -Nz 0.00 -Ne -1.000000 -Nl RTR -Nw --- -Ma 0 -Md ffffffff -Ms e -Mt 800 -Is 14.255 -Id -1.255 -It undefined -Il 11 -If 0 -Ii 0 -Iv 32 4 1 [1 1]
r -t 0.006556198 -Hs 3 -Hd -1 -Ni 3 -Nx 9.00 -Ny 7.00 -Nz 0.00 -Ne -1.000000 -Nl RTR -Nw --- -Ma 0 -Md ffffffff -Ms e -Mt 800 -Is 14.255 -Id -1.255 -It undefined -Il 11 -If 0 -Ii 0 -Iv 32 4 1 [1 1]
r -t 0.006556204 -Hs 4 -Hd -1 -Ni 4 -Nx 7.00 -Ny 8.00 -Nz 0.00 -Ne -1.000000 -Nl RTR -Nw --- -Ma 0 -Md ffffffff -Ms e -Mt 800 -Is 14.255 -Id -1.255 -It undefined -Il 11 -If 0 -Ii 0 -Iv 32 4 1 [1 1]
r -t 0.006556205 -Hs 5 -Hd -1 -Ni 5 -Nx 7.00 -Ny 10.00 -Nz 0.00 -Ne -1.000000 -Nl RTR -Nw --- -Ma 0 -Md ffffffff -Ms e -Mt 800 -Is 14.255 -Id -1.255 -It undefined -Il 11 -If 0 -Ii 0 -Iv 32 4 1 [1 1]
s -t 0.007102330 -Hs 0 -Hd -1 -Ni 0 -Nx 14.00 -Ny 5.00 -Nz 0.00 -Ne -1.000000 -Nl RTR -Nw --- -Ma 0 -Md 0 -Ms 0 -Mt 0 -Is 0.255 -Id -1.255 -It undefined -Il 11 -If 0 -Ii 1 -Iv 32 4 0 [-1 -1]
s -t 0.007657330 -Hs 0 -Hd -1 -Ni 0 -Nx 14.00 -Ny 5.00 -Nz 0.00 -Ne -1.000000 -Nl MAC -Nw --- -Ma 0 -Md ffffffff -Ms 0 -Mt 800 -Is 0.255 -Id -1.255 -It undefined -Il 69 -If 0 -Ii 1 -Iv 32 4 0 [-1 -1]
r -t 0.008209340 -Hs 1 -Hd -1 -Ni 1 -Nx 14.00 -Ny 8.00 -Nz 0.00 -Ne -1.000000 -Nl MAC -Nw --- -Ma 0 -Md ffffffff -Ms 0 -Mt 800 -Is 0.255 -Id -1.255 -It undefined -Il 11 -If 0 -Ii 1 -Iv 32 4 1 [-1 -1]
r -t 0.008209343 -Hs 2 -Hd -1 -Ni 2 -Nx 11.00 -Ny 7.50 -Nz 0.00 -Ne -1.000000 -Nl MAC -Nw --- -Ma 0 -Md ffffffff -Ms 0 -Mt 800 -Is 0.255 -Id -1.255 -It undefined -Il 11 -If 0 -Ii 1 -Iv 32 4 1 [-1 -1]
r -t 0.008209345 -Hs 14 -Hd -1 -Ni 14 -Nx 17.50 -Ny 7.50 -Nz 0.00 -Ne -1.000000 -Nl MAC -Nw --- -Ma 0 -Md ffffffff -Ms 0 -Mt 800 -Is 0.255 -Id -1.255 -It undefined -Il 11 -If 0 -Ii 1 -Iv 32 4 1 [-1 -1]
r -t 0.008209348 -Hs 3 -Hd -1 -Ni 3 -Nx 9.00 -Ny 7.00 -Nz 0.00 -Ne -1.000000 -Nl MAC -Nw --- -Ma 0 -Md ffffffff -Ms 0 -Mt 800 -Is 0.255 -Id -1.255 -It undefined -Il 11 -If 0 -Ii 1 -Iv 32 4 1 [-1 -1]
r -t 0.008209352 -Hs 6 -Hd -1 -Ni 6 -Nx 10.00 -Ny 10.00 -Nz 0.00 -Ne -1.000000 -Nl MAC -Nw --- -Ma 0 -Md ffffffff -Ms 0 -Mt 800 -Is 0.255 -Id -1.255 -It undefined -Il 11 -If 0 -Ii 1 -Iv 32 4 1 [-1 -1]
r -t 0.008209355 -Hs 7 -Hd -1 -Ni 7 -Nx 12.00 -Ny 12.00 -Nz 0.00 -Ne -1.000000 -Nl MAC -Nw --- -Ma 0 -Md ffffffff -Ms 0 -Mt 800 -Is 0.255 -Id -1.255 -It undefined -Il 11 -If 0 -Ii 1 -Iv 32 4 1 [-1 -1]
r -t 0.008209355 -Hs 11 -Hd -1 -Ni 11 -Nx 19.00 -Ny 10.50 -Nz 0.00 -Ne -1.000000 -Nl MAC -Nw --- -Ma 0 -Md ffffffff -Ms 0 -Mt 800 -Is 0.255 -Id -1.255 -It undefined -Il 11 -If 0 -Ii 1 -Iv 32 4 1 [-1 -1]
r -t 0.008209356 -Hs 4 -Hd -1 -Ni 4 -Nx 7.00 -Ny 8.00 -Nz 0.00 -Ne -1.000000 -Nl MAC -Nw --- -Ma 0 -Md ffffffff -Ms 0 -Mt 800 -Is 0.255 -Id -1.255 -It undefined -Il 11 -If 0 -Ii 1 -Iv 32 4 1 [-1 -1]
r -t 0.008209356 -Hs 13 -Hd -1 -Ni 13 -Nx 21.00 -Ny 8.00 -Nz 0.00 -Ne -1.000000 -Nl MAC -Nw --- -Ma 0 -Md ffffffff -Ms 0 -Mt 800 -Is 0.255 -Id -1.255 -It undefined -Il 11 -If 0 -Ii 1 -Iv 32 4 1 [-1 -1]
r -t 0.008209358 -Hs 10 -Hd -1 -Ni 10 -Nx 16.00 -Ny 13.00 -Nz 0.00 -Ne -1.000000 -Nl MAC -Nw --- -Ma 0 -Md ffffffff -Ms 0 -Mt 800 -Is 0.255 -Id -1.255 -It undefined -Il 11 -If 0 -Ii 1 -Iv 32 4 1 [-1 -1]
r -t 0.008209359 -Hs 5 -Hd -1 -Ni 5 -Nx 7.00 -Ny 10.00 -Nz 0.00 -Ne -1.000000 -Nl MAC -Nw --- -Ma 0 -Md ffffffff -Ms 0 -Mt 800 -Is 0.255 -Id -1.255 -It undefined -Il 11 -If 0 -Ii 1 -Iv 32 4 1 [-1 -1]
r -t 0.008209359 -Hs 12 -Hd -1 -Ni 12 -Nx 21.00 -Ny 10.00 -Nz 0.00 -Ne -1.000000 -Nl MAC -Nw --- -Ma 0 -Md ffffffff -Ms 0 -Mt 800 -Is 0.255 -Id -1.255 -It undefined -Il 11 -If 0 -Ii 1 -Iv 32 4 1 [-1 -1]
r -t 0.008209360 -Hs 8 -Hd -1 -Ni 8 -Nx 14.00 -Ny 14.00 -Nz 0.00 -Ne -1.000000 -Nl MAC -Nw --- -Ma 0 -Md ffffffff -Ms 0 -Mt 800 -Is 0.255 -Id -1.255 -It undefined -Il 11 -If 0 -Ii 1 -Iv 32 4 1 [-1 -1]
r -t 0.008209364 -Hs 9 -Hd -1 -Ni 9 -Nx 15.00 -Ny 15.00 -Nz 0.00 -Ne -1.000000 -Nl MAC -Nw --- -Ma 0 -Md ffffffff -Ms 0 -Mt 800 -Is 0.255 -Id -1.255 -It undefined -Il 11 -If 0 -Ii 1 -Iv 32 4 1 [-1 -1]
r -t 0.008234340 -Hs 1 -Hd -1 -Ni 1 -Nx 14.00 -Ny 8.00 -Nz 0.00 -Ne -1.000000 -Nl RTR -Nw --- -Ma 0 -Md ffffffff -Ms 0 -Mt 800 -Is 0.255 -Id -1.255 -It undefined -Il 11 -If 0 -Ii 1 -Iv 32 4 1 [1 1]
r -t 0.008234343 -Hs 2 -Hd -1 -Ni 2 -Nx 11.00 -Ny 7.50 -Nz 0.00 -Ne -1.000000 -Nl RTR -Nw --- -Ma 0 -Md ffffffff -Ms 0 -Mt 800 -Is 0.255 -Id -1.255 -It undefined -Il 11 -If 0 -Ii 1 -Iv 32 4 1 [1 2]
r -t 0.008234345 -Hs 14 -Hd -1 -Ni 14 -Nx 17.50 -Ny 7.50 -Nz 0.00 -Ne -1.000000 -Nl RTR -Nw --- -Ma 0 -Md ffffffff -Ms 0 -Mt 800 -Is 0.255 -Id -1.255 -It undefined -Il 11 -If 0 -Ii 1 -Iv 32 4 1 [1 2]
r -t 0.008234348 -Hs 3 -Hd -1 -Ni 3 -Nx 9.00 -Ny 7.00 -Nz 0.00 -Ne -1.000000 -Nl RTR -Nw --- -Ma 0 -Md ffffffff -Ms 0 -Mt 800 -Is 0.255 -Id -1.255 -It undefined -Il 11 -If 0 -Ii 1 -Iv 32 4 1 [1 1]
r -t 0.008234352 -Hs 6 -Hd -1 -Ni 6 -Nx 10.00 -Ny 10.00 -Nz 0.00 -Ne -1.000000 -Nl RTR -Nw --- -Ma 0 -Md ffffffff -Ms 0 -Mt 800 -Is 0.255 -Id -1.255 -It undefined -Il 11 -If 0 -Ii 1 -Iv 32 4 1 [1 2]
r -t 0.008234355 -Hs 7 -Hd -1 -Ni 7 -Nx 12.00 -Ny 12.00 -Nz 0.00 -Ne -1.000000 -Nl RTR -Nw --- -Ma 0 -Md ffffffff -Ms 0 -Mt 800 -Is 0.255 -Id -1.255 -It undefined -Il 11 -If 0 -Ii 1 -Iv 32 4 1 [1 1]
r -t 0.008234355 -Hs 11 -Hd -1 -Ni 11 -Nx 19.00 -Ny 10.50 -Nz 0.00 -Ne -1.000000 -Nl RTR -Nw --- -Ma 0 -Md ffffffff -Ms 0 -Mt 800 -Is 0.255 -Id -1.255 -It undefined -Il 11 -If 0 -Ii 1 -Iv 32 4 1 [1 2]
r -t 0.008234356 -Hs 4 -Hd -1 -Ni 4 -Nx 7.00 -Ny 8.00 -Nz 0.00 -Ne -1.000000 -Nl RTR -Nw --- -Ma 0 -Md ffffffff -Ms 0 -Mt 800 -Is 0.255 -Id -1.255 -It undefined -Il 11 -If 0 -Ii 1 -Iv 32 4 1 [1 1]
r -t 0.008234356 -Hs 13 -Hd -1 -Ni 13 -Nx 21.00 -Ny 8.00 -Nz 0.00 -Ne -1.000000 -Nl RTR -Nw --- -Ma 0 -Md ffffffff -Ms 0 -Mt 800 -Is 0.255 -Id -1.255 -It undefined -Il 11 -If 0 -Ii 1 -Iv 32 4 1 [1 2]
r -t 0.008234358 -Hs 10 -Hd -1 -Ni 10 -Nx 16.00 -Ny 13.00 -Nz 0.00 -Ne -1.000000 -Nl RTR -Nw --- -Ma 0 -Md ffffffff -Ms 0 -Mt 800 -Is 0.255 -Id -1.255 -It undefined -Il 11 -If 0 -Ii 1 -Iv 32 4 1 [1 1]
r -t 0.008234359 -Hs 5 -Hd -1 -Ni 5 -Nx 7.00 -Ny 10.00 -Nz 0.00 -Ne -1.000000 -Nl RTR -Nw --- -Ma 0 -Md ffffffff -Ms 0 -Mt 800 -Is 0.255 -Id -1.255 -It undefined -Il 11 -If 0 -Ii 1 -Iv 32 4 1 [1 2]
r -t 0.008234359 -Hs 12 -Hd -1 -Ni 12 -Nx 21.00 -Ny 10.00 -Nz 0.00 -Ne -1.000000 -Nl RTR -Nw --- -Ma 0 -Md ffffffff -Ms 0 -Mt 800 -Is 0.255 -Id -1.255 -It undefined -Il 11 -If 0 -Ii 1 -Iv 32 4 1 [1 2]
r -t 0.008234360 -Hs 8 -Hd -1 -Ni 8 -Nx 14.00 -Ny 14.00 -Nz 0.00 -Ne -1.000000 -Nl RTR -Nw --- -Ma 0 -Md ffffffff -Ms 0 -Mt 800 -Is 0.255 -Id -1.255 -It undefined -Il 11 -If 0 -Ii 1 -Iv 32 4 1 [1 1]
r -t 0.008234364 -Hs 9 -Hd -1 -Ni 9 -Nx 15.00 -Ny 15.00 -Nz 0.00 -Ne -1.000000 -Nl RTR -Nw --- -Ma 0 -Md ffffffff -Ms 0 -Mt 800 -Is 0.255 -Id -1.255 -It undefined -Il 11 -If 0 -Ii 1 -Iv 32 4 1 [1 1]
s -t 0.093682621 -Hs 12 -Hd -1 -Ni 12 -Nx 21.00 -Ny 10.00 -Nz 0.00 -Ne -1.000000 -Nl RTR -Nw --- -Ma 0 -Md 0 -Ms 0 -Mt 0 -Is 12.255 -Id -1.255 -It undefined -Il 11 -If 0 -Ii 2 -Iv 32 4 0 [-1 -1]
s -t 0.094337621 -Hs 12 -Hd -1 -Ni 12 -Nx 21.00 -Ny 10.00 -Nz 0.00 -Ne -1.000000 -Nl MAC -Nw --- -Ma 0 -Md ffffffff -Ms c -Mt 800 -Is 12.255 -Id -1.255 -It undefined -Il 69 -If 0 -Ii 2 -Iv 32 4 0 [-1 -1]
r -t 0.094889628 -Hs 13 -Hd -1 -Ni 13 -Nx 21.00 -Ny 8.00 -Nz 0.00 -Ne -1.000000 -Nl MAC -Nw --- -Ma 0 -Md ffffffff -Ms c -Mt 800 -Is 12.255 -Id -1.255 -It undefined -Il 11 -If 0 -Ii 2 -Iv 32 4 1 [-1 -1]
r -t 0.094889628 -Hs 11 -Hd -1 -Ni 11 -Nx 19.00 -Ny 10.50 -Nz 0.00 -Ne -1.000000 -Nl MAC -Nw --- -Ma 0 -Md ffffffff -Ms c -Mt 800 -Is 12.255 -Id -1.255 -It undefined -Il 11 -If 0 -Ii 2 -Iv 32 4 1 [-1 -1]
r -t 0.094889635 -Hs 14 -Hd -1 -Ni 14 -Nx 17.50 -Ny 7.50 -Nz 0.00 -Ne -1.000000 -Nl MAC -Nw --- -Ma 0 -Md ffffffff -Ms c -Mt 800 -Is 12.255 -Id -1.255 -It undefined -Il 11 -If 0 -Ii 2 -Iv 32 4 1 [-1 -1]
r -t 0.094889640 -Hs 10 -Hd -1 -Ni 10 -Nx 16.00 -Ny 13.00 -Nz 0.00 -Ne -1.000000 -Nl MAC -Nw --- -Ma 0 -Md ffffffff -Ms c -Mt 800 -Is 12.255 -Id -1.255 -It undefined -Il 11 -If 0 -Ii 2 -Iv 32 4 1 [-1 -1]
r -t 0.094889645 -Hs 1 -Hd -1 -Ni 1 -Nx 14.00 -Ny 8.00 -Nz 0.00 -Ne -1.000000 -Nl MAC -Nw --- -Ma 0 -Md ffffffff -Ms c -Mt 800 -Is 12.255 -Id -1.255 -It undefined -Il 11 -If 0 -Ii 2 -Iv 32 4 1 [-1 -1]
r -t 0.094889647 -Hs 9 -Hd -1 -Ni 9 -Nx 15.00 -Ny 15.00 -Nz 0.00 -Ne -1.000000 -Nl MAC -Nw --- -Ma 0 -Md ffffffff -Ms c -Mt 800 -Is 12.255 -Id -1.255 -It undefined -Il 11 -If 0 -Ii 2 -Iv 32 4 1 [-1 -1]
r -t 0.094889648 -Hs 8 -Hd -1 -Ni 8 -Nx 14.00 -Ny 14.00 -Nz 0.00 -Ne -1.000000 -Nl MAC -Nw --- -Ma 0 -Md ffffffff -Ms c -Mt 800 -Is 12.255 -Id -1.255 -It undefined -Il 11 -If 0 -Ii 2 -Iv 32 4 1 [-1 -1]
r -t 0.094889650 -Hs 0 -Hd -1 -Ni 0 -Nx 14.00 -Ny 5.00 -Nz 0.00 -Ne -1.000000 -Nl MAC -Nw --- -Ma 0 -Md ffffffff -Ms c -Mt 800 -Is 12.255 -Id -1.255 -It undefined -Il 11 -If 0 -Ii 2 -Iv 32 4 1 [-1 -1]
r -t 0.094889652 -Hs 7 -Hd -1 -Ni 7 -Nx 12.00 -Ny 12.00 -Nz 0.00 -Ne -1.000000 -Nl MAC -Nw --- -Ma 0 -Md ffffffff -Ms c -Mt 800 -Is 12.255 -Id -1.255 -It undefined -Il 11 -If 0 -Ii 2 -Iv 32 4 1 [-1 -1]
r -t 0.094889655 -Hs 2 -Hd -1 -Ni 2 -Nx 11.00 -Ny 7.50 -Nz 0.00 -Ne -1.000000 -Nl MAC -Nw --- -Ma 0 -Md ffffffff -Ms c -Mt 800 -Is 12.255 -Id -1.255 -It undefined -Il 11 -If 0 -Ii 2 -Iv 32 4 1 [-1 -1]
r -t 0.094889658 -Hs 6 -Hd -1 -Ni 6 -Nx 10.00 -Ny 10.00 -Nz 0.00 -Ne -1.000000 -Nl MAC -Nw --- -Ma 0 -Md ffffffff -Ms c -Mt 800 -Is 12.255 -Id -1.255 -It undefined -Il 11 -If 0 -Ii 2 -Iv 32 4 1 [-1 -1]
r -t 0.094889662 -Hs 3 -Hd -1 -Ni 3 -Nx 9.00 -Ny 7.00 -Nz 0.00 -Ne -1.000000 -Nl MAC -Nw --- -Ma 0 -Md ffffffff -Ms c -Mt 800 -Is 12.255 -Id -1.255 -It undefined -Il 11 -If 0 -Ii 2 -Iv 32 4 1 [-1 -1]
r -t 0.094889668 -Hs 5 -Hd -1 -Ni 5 -Nx 7.00 -Ny 10.00 -Nz 0.00 -Ne -1.000000 -Nl MAC -Nw --- -Ma 0 -Md ffffffff -Ms c -Mt 800 -Is 12.255 -Id -1.255 -It undefined -Il 11 -If 0 -Ii 2 -Iv 32 4 1 [-1 -1]
r -t 0.094889668 -Hs 4 -Hd -1 -Ni 4 -Nx 7.00 -Ny 8.00 -Nz 0.00 -Ne -1.000000 -Nl MAC -Nw --- -Ma 0 -Md ffffffff -Ms c -Mt 800 -Is 12.255 -Id -1.255 -It undefined -Il 11 -If 0 -Ii 2 -Iv 32 4 1 [-1 -1]
r -t 0.094914628 -Hs 13 -Hd -1 -Ni 13 -Nx 21.00 -Ny 8.00 -Nz 0.00 -Ne -1.000000 -Nl RTR -Nw --- -Ma 0 -Md ffffffff -Ms c -Mt 800 -Is 12.255 -Id -1.255 -It undefined -Il 11 -If 0 -Ii 2 -Iv 32 4 1 [1 1]
r -t 0.094914628 -Hs 11 -Hd -1 -Ni 11 -Nx 19.00 -Ny 10.50 -Nz 0.00 -Ne -1.000000 -Nl RTR -Nw --- -Ma 0 -Md ffffffff -Ms c -Mt 800 -Is 12.255 -Id -1.255 -It undefined -Il 11 -If 0 -Ii 2 -Iv 32 4 1 [1 1]
r -t 0.094914635 -Hs 14 -Hd -1 -Ni 14 -N