V -t * -v 1.0a5 -a 0
A -t * -n 1 -p 0 -o 0xffffffff -c 31 -a 1
A -t * -h 1 -m 2147483647 -s 0
n -t 0.000000 -s 0 -x 14.000000 -y 5.000000 -U 0.000000 -V 0.000000 -T 0.000000
n -t 0.000000 -s 1 -x 14.000000 -y 8.000000 -U 0.000000 -V 0.000000 -T 0.000000
n -t 0.000000 -s 2 -x 11.000000 -y 7.500000 -U 0.000000 -V 0.000000 -T 0.000000
n -t 0.000000 -s 3 -x 9.000000 -y 7.000000 -U 0.000000 -V 0.000000 -T 0.000000
n -t 0.000000 -s 4 -x 7.000000 -y 8.000000 -U 0.000000 -V 0.000000 -T 0.000000
n -t 0.000000 -s 5 -x 7.000000 -y 10.000000 -U 0.000000 -V 0.000000 -T 0.000000
n -t 0.000000 -s 6 -x 10.000000 -y 10.000000 -U 0.000000 -V 0.000000 -T 0.000000
n -t 0.000000 -s 7 -x 12.000000 -y 12.000000 -U 0.000000 -V 0.000000 -T 0.000000
n -t 0.000000 -s 8 -x 14.000000 -y 14.000000 -U 0.000000 -V 0.000000 -T 0.000000
n -t 0.000000 -s 9 -x 15.000000 -y 15.000000 -U 0.000000 -V 0.000000 -T 0.000000
n -t 0.000000 -s 10 -x 16.000000 -y 13.000000 -U 0.000000 -V 0.000000 -T 0.000000
n -t 0.000000 -s 11 -x 19.000000 -y 10.500000 -U 0.000000 -V -0.000000 -T 0.000000
n -t 0.000000 -s 14 -x 17.500000 -y 7.500000 -U -0.000000 -V 0.000000 -T 0.000000
+ -t 0.005404169 -s 14 -d -1 -p undefined -e 11 -c 2 -a 0 -i 0 -k RTR 
- -t 0.005404169 -s 14 -d -1 -p undefined -e 11 -c 2 -a 0 -i 0 -k RTR
h -t 0.005404169 -s 14 -d -1 -p undefined -e 11 -c 2 -a 0 -i 0 -k RTR
+ -t 0.005979169 -s 14 -d -1 -p undefined -e 69 -c 2 -a 0 -i 0 -k MAC 
- -t 0.005979169 -s 14 -d -1 -p undefined -e 69 -c 2 -a 0 -i 0 -k MAC
h -t 0.005979169 -s 14 -d -1 -p undefined -e 69 -c 2 -a 0 -i 0 -k MAC
r -t 0.006531180 -s 11 -d -1 -p undefined -e 11 -c 2 -a 0 -i 0 -k MAC
r -t 0.006531181 -s 1 -d -1 -p undefined -e 11 -c 2 -a 0 -i 0 -k MAC
r -t 0.006531181 -s 13 -d -1 -p undefined -e 11 -c 2 -a 0 -i 0 -k MAC
r -t 0.006531183 -s 0 -d -1 -p undefined -e 11 -c 2 -a 0 -i 0 -k MAC
r -t 0.006531183 -s 12 -d -1 -p undefined -e 11 -c 2 -a 0 -i 0 -k MAC
r -t 0.006531188 -s 10 -d -1 -p undefined -e 11 -c 2 -a 0 -i 0 -k MAC
r -t 0.006531191 -s 2 -d -1 -p undefined -e 11 -c 2 -a 0 -i 0 -k MAC
r -t 0.006531193 -s 7 -d -1 -p undefined -e 11 -c 2 -a 0 -i 0 -k MAC
r -t 0.006531194 -s 8 -d -1 -p undefined -e 11 -c 2 -a 0 -i 0 -k MAC
r -t 0.006531195 -s 9 -d -1 -p undefined -e 11 -c 2 -a 0 -i 0 -k MAC
r -t 0.006531195 -s 6 -d -1 -p undefined -e 11 -c 2 -a 0 -i 0 -k MAC
r -t 0.006531198 -s 3 -d -1 -p undefined -e 11 -c 2 -a 0 -i 0 -k MAC
r -t 0.006531204 -s 4 -d -1 -p undefined -e 11 -c 2 -a 0 -i 0 -k MAC
r -t 0.006531205 -s 5 -d -1 -p undefined -e 11 -c 2 -a 0 -i 0 -k MAC
r -t 0.006556180 -s 11 -d -1 -p undefined -e 11 -c 2 -a 0 -i 0 -k RTR
r -t 0.006556181 -s 1 -d -1 -p undefined -e 11 -c 2 -a 0 -i 0 -k RTR
r -t 0.006556181 -s 13 -d -1 -p undefined -e 11 -c 2 -a 0 -i 0 -k RTR
r -t 0.006556183 -s 0 -d -1 -p undefined -e 11 -c 2 -a 0 -i 0 -k RTR
r -t 0.006556183 -s 12 -d -1 -p undefined -e 11 -c 2 -a 0 -i 0 -k RTR
r -t 0.006556188 -s 10 -d -1 -p undefined -e 11 -c 2 -a 0 -i 0 -k RTR
r -t 0.006556191 -s 2 -d -1 -p undefined -e 11 -c 2 -a 0 -i 0 -k RTR
r -t 0.006556193 -s 7 -d -1 -p undefined -e 11 -c 2 -a 0 -i 0 -k RTR
r -t 0.006556194 -s 8 -d -1 -p undefined -e 11 -c 2 -a 0 -i 0 -k RTR
r -t 0.006556195 -s 9 -d -1 -p undefined -e 11 -c 2 -a 0 -i 0 -k RTR
r -t 0.006556195 -s 6 -d -1 -p undefined -e 11 -c 2 -a 0 -i 0 -k RTR
r -t 0.006556198 -s 3 -d -1 -p undefined -e 11 -c 2 -a 0 -i 0 -k RTR
r -t 0.006556204 -s 4 -d -1 -p undefined -e 11 -c 2 -a 0 -i 0 -k RTR
r -t 0.006556205 -s 5 -d -1 -p undefined -e 11 -c 2 -a 0 -i 0 -k RTR
+ -t 0.007102330 -s 0 -d -1 -p undefined -e 11 -c 2 -a 0 -i 1 -k RTR 
- -t 0.007102330 -s 0 -d -1 -p undefined -e 11 -c 2 -a 0 -i 1 -k RTR
h -t 0.007102330 -s 0 -d -1 -p undefined -e 11 -c 2 -a 0 -i 1 -k RTR
+ -t 0.007657330 -s 0 -d -1 -p undefined -e 69 -c 2 -a 0 -i 1 -k MAC 
- -t 0.007657330 -s 0 -d -1 -p undefined -e 69 -c 2 -a 0 -i 1 -k MAC
h -t 0.007657330 -s 0 -d -1 -p undefined -e 69 -c 2 -a 0 -i 1 -k MAC
r -t 0.008209340 -s 1 -d -1 -p undefined -e 11 -c 2 -a 0 -i 1 -k MAC
r -t 0.008209343 -s 2 -d -1 -p undefined -e 11 -c 2 -a 0 -i 1 -k MAC
r -t 0.008209345 -s 14 -d -1 -p undefined -e 11 -c 2 -a 0 -i 1 -k MAC
r -t 0.008209348 -s 3 -d -1 -p undefined -e 11 -c 2 -a 0 -i 1 -k MAC
r -t 0.008209352 -s 6 -d -1 -p undefined -e 11 -c 2 -a 0 -i 1 -k MAC
r -t 0.008209355 -s 7 -d -1 -p undefined -e 11 -c 2 -a 0 -i 1 -k MAC
r -t 0.008209355 -s 11 -d -1 -p undefined -e 11 -c 2 -a 0 -i 1 -k MAC
r -t 0.008209356 -s 4 -d -1 -p undefined -e 11 -c 2 -a 0 -i 1 -k MAC
r -t 0.008209356 -s 13 -d -1 -p undefined -e 11 -c 2 -a 0 -i 1 -k MAC
r -t 0.008209358 -s 10 -d -1 -p undefined -e 11 -c 2 -a 0 -i 1 -k MAC
r -t 0.008209359 -s 5 -d -1 -p undefined -e 11 -c 2 -a 0 -i 1 -k MAC
r -t 0.008209359 -s 12 -d -1 -p undefined -e 11 -c 2 -a 0 -i 1 -k MAC
r -t 0.008209360 -s 8 -d -1 -p undefined -e 11 -c 2 -a 0 -i 1 -k MAC
r -t 0.008209364 -s 9 -d -1 -p undefined -e 11 -c 2 -a 0 -i 1 -k MAC
r -t 0.008234340 -s 1 -d -1 -p undefined -e 11 -c 2 -a 0 -i 1 -k RTR
r -t 0.008234343 -s 2 -d -1 -p undefined -e 11 -c 2 -a 0 -i 1 -k RTR
r -t 0.008234345 -s 14 -d -1 -p undefined -e 11 -c 2 -a 0 -i 1 -k RTR
r -t 0.008234348 -s 3 -d -1 -p undefined -e 11 -c 2 -a 0 -i 1 -k RTR
r -t 0.008234352 -s 6 -d -1 -p undefined -e 11 -c 2 -a 0 -i 1 -k RTR
r -t 0.008234355 -s 7 -d -1 -p undefined -e 11 -c 2 -a 0 -i 1 -k RTR
r -t 0.008234355 -s 11 -d -1 -p undefined -e 11 -c 2 -a 0 -i 1 -k RTR
r -t 0.008234356 -s 4 -d -1 -p undefined -e 11 -c 2 -a 0 -i 1 -k RTR
r -t 0.008234356 -s 13 -d -1 -p undefined -e 11 -c 2 -a 0 -i 1 -k RTR
r -t 0.008234358 -s 10 -d -1 -p undefined -e 11 -c 2 -a 0 -i 1 -k RTR
r -t 0.008234359 -s 5 -d -1 -p undefined -e 11 -c 2 -a 0 -i 1 -k RTR
r -t 0.008234359 -s 12 -d -1 -p undefined -e 11 -c 2 -a 0 -i 1 -k RTR
r -t 0.008234360 -s 8 -d -1 -p undefined -e 11 -c 2 -a 0 -i 1 -k RTR
r -t 0.008234364 -s 9 -d -1 -p undefined -e 11 -c 2 -a 0 -i 1 -k RTR
+ -t 0.093682621 -s 12 -d -1 -p undefined -e 11 -c 2 -a 0 -i 2 -k RTR 
- -t 0.093682621 -s 12 -d -1 -p undefined -e 11 -c 2 -a 0 -i 2 -k RTR
h -t 0.093682621 -s 12 -d -1 -p undefined -e 11 -c 2 -a 0 -i 2 -k RTR
+ -t 0.094337621 -s 12 -d -1 -p undefined -e 69 -c 2 -a 0 -i 2 -k MAC 
- -t 0.094337621 -s 12 -d -1 -p undefined -e 69 -c 2 -a 0 -i 2 -k MAC
h -t 0.094337621 -s 12 -d -1 -p undefined -e 69 -c 2 -a 0 -i 2 -k MAC
r -t 0.094889628 -s 13 -d -1 -p undefined -e 11 -c 2 -a 0 -i 2 -k MAC
r -t 0.094889628 -s 11 -d -1 -p undefined -e 11 -c 2 -a 0 -i 2 -k MAC
r -t 0.094889635 -s 14 -d -1 -p undefined -e 11 -c 2 -a 0 -i 2 -k MAC
r -t 0.094889640 -s 10 -d -1 -p undefined -e 11 -c 2 -a 0 -i 2 -k MAC
r -t 0.094889645 -s 1 -d -1 -p undefined -e 11 -c 2 -a 0 -i 2 -k MAC
r -t 0.094889647 -s 9 -d -1 -p undefined -e 11 -c 2 -a 0 -i 2 -k MAC
r -t 0.094889648 -s 8 -d -1 -p undefined -e 11 -c 2 -a 0 -i 2 -k MAC
r -t 0.094889650 -s 0 -d -1 -p undefined -e 11 -c 2 -a 0 -i 2 -k MAC
r -t 0.094889652 -s 7 -d -1 -p undefined -e 11 -c 2 -a 0 -i 2 -k MAC
r -t 0.094889655 -s 2 -d -1 -p undefined -e 11 -c 2 -a 0 -i 2 -k MAC
r -t 0.094889658 -s 6 -d -1 -p undefined -e 11 -c 2 -a 0 -i 2 -k MAC
r -t 0.094889662 -s 3 -d -1 -p undefined -e 11 -c 2 -a 0 -i 2 -k MAC
r -t 0.094889668 -s 5 -d -1 -p undefined -e 11 -c 2 -a 0 -i 2 -k MAC
r -t 0.094889668 -s 4 -d -1 -p undefined -e 11 -c 2 -a 0 -i 2 -k MAC
r -t 0.094914628 -s 13 -d -1 -p undefined -e 11 -c 2 -a 0 -i 2 -k RTR
r -t 0.094914628 -s 11 -d -1 -p undefined -e 11 -c 2 -a 0 -i 2 -k RTR
r -t 0.094914635 -s 14 -d -1 -p undefined -e 11 -c 2 -a 0 -i 2 -k RTR
r -t 0.094914640 -s 10 -d -1 -p undefined -e 11 -c 2 -a 0 -i 2 -k RTR
r -t 0.094914645 -s 1 -d -1 -p undefined -e 11 -c 2 -a 0 -i 2 -k RTR
r -t 0.094914647 -s 9 -d -1 -p undefined -e 11 -c 2 -a 0 -i 2 -k RTR
r -t 0.094914648 -s 8 -d -1 -p undefined -e 11 -c 2 -a 0 -i 2 -k RTR
r -t 0.094914650 -s 0 -d -1 -p undefined -e 11 -c 2 -a 0 -i 2 -k RTR
r -t 0.094914652 -s 7 -d -1 -p undefined -e 11 -c 2 -a 0 -i 2 -k RTR
r -t 0.094914655 -s 2 -d -1 -p undefined -e 11 -c 2 -a 0 -i 2 -k RTR
r -t 0.094914658 -s 6 -d -1 -p undefined -e 11 -c 2 -a 0 -i 2 -k RTR
r -t 0.094914662 -s 3 -d -1 -p undefined -e 11 -c 2 -a 0 -i 2 -k RTR
r -t 0.094914668 -s 5 -d -1 -p undefined -e 11 -c 2 -a 0 -i 2 -k RTR
r -t 0.094914668 -s 4 -d -1 -p undef